chemcompute.org
{'UTCtimestamp': '2022-12-21T03:38:49.228116', 'cluster': 'jetstream2', 'clusterJobNumber': '169832', 'status': 'RUNNING', 'nodeList': 'chemcompute-node-0'}
----- GAMESS execution script 'rungms' -----
This job is running on host chemcompute-node-0.novalocal
under operating system Linux at Wed Dec 21 03:38:52 UTC 2022
SLURM has assigned the following compute nodes to this run:
Available scratch disk space (Kbyte units) at beginning of the job is
Filesystem     1K-blocks     Used Available Use% Mounted on
/dev/sda4       61775852 14998332  46777520  25% /
GAMESS temporary binary files will be written to /scratch/169832
GAMESS supplementary output files will be written to /data/slurm/51/518242
Copying input file 518242.inp to your run's scratch directory...
The generated host list is
chemcompute-node-0.novalocal

 Distributed Data Interface kickoff program.
 Initiating 1 compute processes on 1 nodes to run the following command:
 /data/gamess-2019R1-avx2-ddi/gamess.00.x 518242 

          ******************************************************
          *         GAMESS VERSION = 30 JUN 2019 (R1)          *
          *             FROM IOWA STATE UNIVERSITY             *
          * M.W.SCHMIDT, K.K.BALDRIDGE, J.A.BOATZ, S.T.ELBERT, *
          *   M.S.GORDON, J.H.JENSEN, S.KOSEKI, N.MATSUNAGA,   *
          *          K.A.NGUYEN, S.J.SU, T.L.WINDUS,           *
          *       TOGETHER WITH M.DUPUIS, J.A.MONTGOMERY       *
          *         J.COMPUT.CHEM.  14, 1347-1363(1993)        *
          **************** 64 BIT INTEL VERSION ****************

  SINCE 1993, STUDENTS AND POSTDOCS WORKING AT IOWA STATE UNIVERSITY
  AND ALSO IN THEIR VARIOUS JOBS AFTER LEAVING ISU HAVE MADE IMPORTANT
  CONTRIBUTIONS TO THE CODE:
     IVANA ADAMOVIC, CHRISTINE AIKENS, YURI ALEXEEV, POOJA ARORA,
     ANDREY ASADCHEV, ROB BELL, PRADIPTA BANDYOPADHYAY, JONATHAN BENTZ,
     COLLEEN BERTONI, BRETT BODE, KURT BRORSEN, CALEB CARLIN, GALINA CHABAN,
     WEI CHEN, CHEOL HO CHOI, PAUL DAY, ALBERT DEFUSCO, NUWAN DESILVA,
     TIM DUDLEY, DMITRI FEDOROV, ALEX FINDLATER, GRAHAM FLETCHER, 
     MARK FREITAG, KURT GLAESEMANN, ANASTASIA GUNINA,
     DAN KEMP, GRANT MERRILL, NORIYUKI MINEZAWA, JONATHAN MULLIN,
     TAKESHI NAGATA, SEAN NEDD, HEATHER NETZLOFF, BOSILJKA NJEGIC, RYAN OLSON,
     MIKE PAK, BUU PHAM,
     SPENCER PRUITT, LUKE ROSKOP, JIM SHOEMAKER, LYUDMILA SLIPCHENKO,
     TONY SMITH, SAROM SOK LEANG, JIE SONG, TETSUYA TAKETSUGU, SIMON WEBB,
     PENG XU, SOOHAENG YOO, FEDERICO ZAHARIEV

  ADDITIONAL CODE HAS BEEN PROVIDED BY COLLABORATORS IN OTHER GROUPS:
     IOWA STATE UNIVERSITY:
          JOE IVANIC, AARON WEST, LAIMUTIS BYTAUTAS, KLAUS RUEDENBERG
     UNIVERSITY OF TOKYO: KIMIHIKO HIRAO, TAKAHITO NAKAJIMA,
          TAKAO TSUNEDA, MUNEAKI KAMIYA, SUSUMU YANAGISAWA,
          KIYOSHI YAGI, MAHITO CHIBA, SEIKEN TOKURA, NAOAKI KAWAKAMI
     UNIVERSITY OF AARHUS: FRANK JENSEN
     UNIVERSITY OF IOWA: VISVALDAS KAIRYS, HUI LI
     NATIONAL INST. OF STANDARDS AND TECHNOLOGY: WALT STEVENS, DAVID GARMER
     UNIVERSITY OF PISA: BENEDETTA MENNUCCI, JACOPO TOMASI
     UNIVERSITY OF MEMPHIS: HENRY KURTZ, PRAKASHAN KORAMBATH
     UNIVERSITY OF ALBERTA: TOBY ZENG, MARIUSZ KLOBUKOWSKI
     UNIVERSITY OF NEW ENGLAND: MARK SPACKMAN
     MIE UNIVERSITY: HIROAKI UMEDA
     NAT. INST. OF ADVANCED INDUSTRIAL SCIENCE AND TECHNOLOGY: KAZUO KITAURA
     MICHIGAN STATE UNIVERSITY:
          KAROL KOWALSKI, MARTA WLOCH, JEFFREY GOUR, JESSE LUTZ,
          WEI LI, JUN SHEN, J. EMILIANO DEUSTUA, PIOTR PIECUCH
     UNIVERSITY OF MINNESOTA:
          YINAN SHU
     UNIVERSITY OF SILESIA: MONIKA MUSIAL, STANISLAW KUCHARSKI
     FACULTES UNIVERSITAIRES NOTRE-DAME DE LA PAIX:
          OLIVIER QUINET, BENOIT CHAMPAGNE
     UNIVERSITY OF CALIFORNIA - SANTA BARBARA: BERNARD KIRTMAN
     INSTITUTE FOR MOLECULAR SCIENCE:
          KAZUYA ISHIMURA, MICHIO KATOUDA, AND SHIGERU NAGASE
     UNIVERSITY OF NOTRE DAME: ANNA POMOGAEVA, DAN CHIPMAN
     KYUSHU UNIVERSITY:
          HARUYUKI NAKANO,
          FENG LONG GU, JACEK KORCHOWIEC, MARCIN MAKOWSKI, AND YURIKO AOKI,
          HIROTOSHI MORI AND EISAKU MIYOSHI
     PENNSYLVANIA STATE UNIVERSITY:
          TZVETELIN IORDANOV, CHET SWALINA, JONATHAN SKONE,
          SHARON HAMMES-SCHIFFER
     WASEDA UNIVERSITY:
          MASATO KOBAYASHI, TOMOKO AKAMA, TSUGUKI TOUMA,
          TAKESHI YOSHIKAWA, YASUHIRO IKABATA, JUNJI SEINO,
          YUYA NAKAJIMA, HIROMI NAKAI
     NANJING UNIVERSITY: SHUHUA LI
     UNIVERSITY OF NEBRASKA:
          PEIFENG SU, DEJUN SI, NANDUN THELLAMUREGE, YALI WANG, HUI LI
     UNIVERSITY OF ZURICH: ROBERTO PEVERATI, KIM BALDRIDGE
     N. COPERNICUS UNIVERSITY AND JACKSON STATE UNIVERSITY:
          MARIA BARYSZ
     UNIVERSITY OF COPENHAGEN: Jimmy Kromann, CASPER STEINMANN
     TOKYO INSTITUTE OF TECHNOLOGY: HIROYA NAKATA
     NAGOYA UNIVERSITY: YOSHIO NISHIMOTO, STEPHAN IRLE
     MOSCOW STATE UNIVERSITY: VLADIMIR MIRONOV
     A.N.NESMEYANOV INSTITUTE OF ORGANOELEMENT COMPOUNDS OF RUSSIAN ACADEMY OF SCIENCES:
          IGOR S. GERASIMOV

 EXECUTION OF GAMESS BEGUN Wed Dec 21 03:38:52 2022

            ECHO OF THE FIRST FEW INPUT CARDS -
 INPUT CARD>!                                                                               
 INPUT CARD>!   GAMESS Calculation input file                                               
 INPUT CARD>!                                                                               
 INPUT CARD>!                                                                               
 INPUT CARD> $CONTRL SCFTYP=RHF MAXIT=200 RUNTYP=ENERGY                                     
 INPUT CARD>         COORD=UNIQUE MULT=1                                                    
 INPUT CARD>         ICHARG=0                                                               
 INPUT CARD>         DFTTYP=B3LYP                                                           
 INPUT CARD>         MOLPLT=.FALSE. PLTORB=.FALSE.  $END                                    
 INPUT CARD> $SYSTEM TIMLIM=2879 MWORDS=250  $END                                           
 INPUT CARD>                                                                                
 INPUT CARD> $STATPT OPTTOL=0.0005 NSTEP=999 $END                                           
 INPUT CARD> $STATPT IHREP=0  $END                                                          
 INPUT CARD>                                                                                
 INPUT CARD> $DFT    METHOD=GRID  NLEB=590  $END                                            
 INPUT CARD>                                                                                
 INPUT CARD> $BASIS  GBASIS=N31 NGAUSS=6                                                    
 INPUT CARD>         NDFUNC=1   NPFUNC=0  $END                                              
 INPUT CARD>                                                                                
 INPUT CARD> $SCF    DIRSCF=.T. $END                                                        
 INPUT CARD> $GUESS  GUESS=HUCKEL  $END                                                     
 INPUT CARD>                                                                                
 INPUT CARD> $DATA                                                                          
 INPUT CARD>                                                                                
 INPUT CARD>  C1                                                                            
 INPUT CARD>C     6.0     1.22661    -0.75208     0.22750                                   
 INPUT CARD>C     6.0     1.24550     0.75820    -0.07363                                   
 INPUT CARD>C     6.0    -0.10079     1.42048    -0.02551                                   
 INPUT CARD>C     6.0    -1.24422     0.71563    -0.01910                                   
 INPUT CARD>C     6.0    -1.23467    -0.72284    -0.10590                                   
 INPUT CARD>C     6.0    -0.09746    -1.42004    -0.01507                                   
 INPUT CARD>H     1.0     1.49145    -0.91622     1.27529                                   
 INPUT CARD>H     1.0     2.00166    -1.24580    -0.36290                                   
 INPUT CARD>H     1.0     1.67230     0.92681    -1.06527                                   
 INPUT CARD>H     1.0     1.91886     1.25454     0.63540                                   
 INPUT CARD>H     1.0    -0.13676     2.50165    -0.01122                                   
 INPUT CARD>H     1.0    -2.20284     1.21844     0.00657                                   
 INPUT CARD>H     1.0    -2.18771    -1.22795    -0.24986                                   
 INPUT CARD>H     1.0    -0.11576    -2.50358    -0.08848                                   
 INPUT CARD> $END                                                                           
 INPUT CARD>                                                                                
 INPUT CARD>                                                                                
 INPUT CARD>! Customizations after this line are persisted when using Do More Calculations  
  250000000 WORDS OF MEMORY AVAILABLE

     BASIS OPTIONS
     -------------
     GBASIS=N31          IGAUSS=       6      POLAR=POPN31  
     NDFUNC=       1     NFFUNC=       0     DIFFSP=       F
     NPFUNC=       0      DIFFS=       F     BASNAM=        


     RUN TITLE
     ---------
                                                                                 

 THE POINT GROUP OF THE MOLECULE IS C1      
 THE ORDER OF THE PRINCIPAL AXIS IS     0

 ATOM      ATOMIC                      COORDINATES (BOHR)
           CHARGE         X                   Y                   Z
 C           6.0     2.3179567938       -1.4212251208        0.4299126622
 C           6.0     2.3536537177        1.4327902439       -0.1391405245
 C           6.0    -0.1904654823        2.6843179710       -0.0482069099
 C           6.0    -2.3512348684        1.3523446086       -0.0360937664
 C           6.0    -2.3331879853       -1.3659695330       -0.2001219821
 C           6.0    -0.1841726948       -2.6834864916       -0.0284781706
 H           1.0     2.8184318244       -1.7314047445        2.4099486549
 H           1.0     3.7825889206       -2.3542206355       -0.6857815609
 H           1.0     3.1601887693        1.7514169427       -2.0130684029
 H           1.0     3.6261196088        2.3707368406        1.2007318926
 H           1.0    -0.2584389261        4.7274330172       -0.0212027256
 H           1.0    -4.1627639948        2.3025177325        0.0124154997
 H           1.0    -4.1341724406       -2.3204890266       -0.4721669353
 H           1.0    -0.2187546803       -4.7310801883       -0.1672029554

          INTERNUCLEAR DISTANCES (ANGS.)
          ------------------------------

                1 C          2 C          3 C          4 C          5 C     

   1 C       0.0000000    1.5401240 *  2.5585194 *  2.8844384 *  2.4839303 *
   2 C       1.5401240 *  0.0000000    1.5011419 *  2.4906809 *  2.8889036 *
   3 C       2.5585194 *  1.5011419 *  0.0000000    1.3432374 *  2.4261012 *
   4 C       2.8844384 *  2.4906809 *  1.3432374 *  0.0000000    1.4411181 *
   5 C       2.4839303 *  2.8889036 *  2.4261012 *  1.4411181 *  0.0000000  
   6 C       1.5027216 *  2.5596289 *  2.8405411 *  2.4240794 *  1.3370058 *
   7 H       1.0931359 *  2.1641994 *  3.1124710    3.4383528    3.0621580  
   8 H       1.0922610 *  2.1613586 *  3.4122100    3.8080366    3.2883686  
   9 H       2.1653096 *  1.0926745 *  2.1139203 *  3.1056654    3.4773856  
  10 H       2.1615079 *  1.0965813 *  2.1315075 *  3.2747319    3.7953009  
  11 H       3.5358908    2.2257933 *  1.0818626 *  2.1015226 *  3.4075954  
  12 H       3.9614248    3.4798422    2.1119809 *  1.0827877 *  2.1722271 *
  13 H       3.4802164    3.9702367    3.3793120    2.1727694 *  1.0881847 *
  14 H       2.2292494 *  3.5344672    3.9245938    3.4119714    2.1031638 *

                6 C          7 H          8 H          9 H         10 H     

   1 C       1.5027216 *  1.0931359 *  1.0922610 *  2.1653096 *  2.1615079 *
   2 C       2.5596289 *  2.1641994 *  2.1613586 *  1.0926745 *  1.0965813 *
   3 C       2.8405411 *  3.1124710    3.4122100    2.1139203 *  2.1315075 *
   4 C       2.4240794 *  3.4383528    3.8080366    3.1056654    3.2747319  
   5 C       1.3370058 *  3.0621580    3.2883686    3.4773856    3.7953009  
   6 C       0.0000000    2.1079607 *  2.1348653 *  3.1213259    3.4120428  
   7 H       2.1079607 *  0.0000000    1.7471702 *  2.9845749 *  2.3031147 *
   8 H       2.1348653 *  1.7471702 *  0.0000000    2.3069538 *  2.6935402 *
   9 H       3.1213259    2.9845749 *  2.3069538 *  0.0000000    1.7494220 *
  10 H       3.4120428    2.3031147 *  2.6935402 *  1.7494220 *  0.0000000  
  11 H       3.9218888    3.9985011    4.3289607    2.6198932 *  2.4897740 *
  12 H       3.3755992    4.4513147    4.8874131    4.0312032    4.1695493  
  13 H       2.1121482 *  3.9949313    4.1909328    4.4952821    4.8795859  
  14 H       1.0861781 *  2.6386937 *  2.4780606 *  3.9898437    4.3344142  

               11 H         12 H         13 H         14 H     

   1 C       3.5358908    3.9614248    3.4802164    2.2292494 *
   2 C       2.2257933 *  3.4798422    3.9702367    3.5344672  
   3 C       1.0818626 *  2.1119809 *  3.3793120    3.9245938  
   4 C       2.1015226 *  1.0827877 *  2.1727694 *  3.4119714  
   5 C       3.4075954    2.1722271 *  1.0881847 *  2.1031638 *
   6 C       3.9218888    3.3755992    2.1121482 *  1.0861781 *
   7 H       3.9985011    4.4513147    3.9949313    2.6386937 *
   8 H       4.3289607    4.8874131    4.1909328    2.4780606 *
   9 H       2.6198932 *  4.0312032    4.4952821    3.9898437  
  10 H       2.4897740 *  4.1695493    4.8795859    4.3344142  
  11 H       0.0000000    2.4322070 *  4.2630108    5.0058703  
  12 H       2.4322070 *  0.0000000    2.4598393 *  4.2682983  
  13 H       4.2630108    2.4598393 *  0.0000000    2.4384938 *
  14 H       5.0058703    4.2682983    2.4384938 *  0.0000000  

  * ... LESS THAN  3.000


     ATOMIC BASIS SET
     ----------------
 THE CONTRACTED PRIMITIVE FUNCTIONS HAVE BEEN UNNORMALIZED
 THE CONTRACTED BASIS FUNCTIONS ARE NOW NORMALIZED TO UNITY

  SHELL TYPE  PRIMITIVE        EXPONENT          CONTRACTION COEFFICIENT(S)

 C         

      1   S       1          3047.5248800    0.001834737132
      1   S       2           457.3695180    0.014037322813
      1   S       3           103.9486850    0.068842622264
      1   S       4            29.2101553    0.232184443216
      1   S       5             9.2866630    0.467941348435
      1   S       6             3.1639270    0.362311985337

      2   L       7             7.8682723   -0.119332419775    0.068999066591
      2   L       8             1.8812885   -0.160854151696    0.316423960957
      2   L       9             0.5442493    1.143456437840    0.744308290898

      3   L      10             0.1687145    1.000000000000    1.000000000000

      4   D      11             0.8000000    1.000000000000

 C         

      5   S      12          3047.5248800    0.001834737132
      5   S      13           457.3695180    0.014037322813
      5   S      14           103.9486850    0.068842622264
      5   S      15            29.2101553    0.232184443216
      5   S      16             9.2866630    0.467941348435
      5   S      17             3.1639270    0.362311985337

      6   L      18             7.8682723   -0.119332419775    0.068999066591
      6   L      19             1.8812885   -0.160854151696    0.316423960957
      6   L      20             0.5442493    1.143456437840    0.744308290898

      7   L      21             0.1687145    1.000000000000    1.000000000000

      8   D      22             0.8000000    1.000000000000

 C         

      9   S      23          3047.5248800    0.001834737132
      9   S      24           457.3695180    0.014037322813
      9   S      25           103.9486850    0.068842622264
      9   S      26            29.2101553    0.232184443216
      9   S      27             9.2866630    0.467941348435
      9   S      28             3.1639270    0.362311985337

     10   L      29             7.8682723   -0.119332419775    0.068999066591
     10   L      30             1.8812885   -0.160854151696    0.316423960957
     10   L      31             0.5442493    1.143456437840    0.744308290898

     11   L      32             0.1687145    1.000000000000    1.000000000000

     12   D      33             0.8000000    1.000000000000

 C         

     13   S      34          3047.5248800    0.001834737132
     13   S      35           457.3695180    0.014037322813
     13   S      36           103.9486850    0.068842622264
     13   S      37            29.2101553    0.232184443216
     13   S      38             9.2866630    0.467941348435
     13   S      39             3.1639270    0.362311985337

     14   L      40             7.8682723   -0.119332419775    0.068999066591
     14   L      41             1.8812885   -0.160854151696    0.316423960957
     14   L      42             0.5442493    1.143456437840    0.744308290898

     15   L      43             0.1687145    1.000000000000    1.000000000000

     16   D      44             0.8000000    1.000000000000

 C         

     17   S      45          3047.5248800    0.001834737132
     17   S      46           457.3695180    0.014037322813
     17   S      47           103.9486850    0.068842622264
     17   S      48            29.2101553    0.232184443216
     17   S      49             9.2866630    0.467941348435
     17   S      50             3.1639270    0.362311985337

     18   L      51             7.8682723   -0.119332419775    0.068999066591
     18   L      52             1.8812885   -0.160854151696    0.316423960957
     18   L      53             0.5442493    1.143456437840    0.744308290898

     19   L      54             0.1687145    1.000000000000    1.000000000000

     20   D      55             0.8000000    1.000000000000

 C         

     21   S      56          3047.5248800    0.001834737132
     21   S      57           457.3695180    0.014037322813
     21   S      58           103.9486850    0.068842622264
     21   S      59            29.2101553    0.232184443216
     21   S      60             9.2866630    0.467941348435
     21   S      61             3.1639270    0.362311985337

     22   L      62             7.8682723   -0.119332419775    0.068999066591
     22   L      63             1.8812885   -0.160854151696    0.316423960957
     22   L      64             0.5442493    1.143456437840    0.744308290898

     23   L      65             0.1687145    1.000000000000    1.000000000000

     24   D      66             0.8000000    1.000000000000

 H         

     25   S      67            18.7311370    0.033494604338
     25   S      68             2.8253944    0.234726953484
     25   S      69             0.6401217    0.813757326146

     26   S      70             0.1612778    1.000000000000

 H         

     27   S      71            18.7311370    0.033494604338
     27   S      72             2.8253944    0.234726953484
     27   S      73             0.6401217    0.813757326146

     28   S      74             0.1612778    1.000000000000

 H         

     29   S      75            18.7311370    0.033494604338
     29   S      76             2.8253944    0.234726953484
     29   S      77             0.6401217    0.813757326146

     30   S      78             0.1612778    1.000000000000

 H         

     31   S      79            18.7311370    0.033494604338
     31   S      80             2.8253944    0.234726953484
     31   S      81             0.6401217    0.813757326146

     32   S      82             0.1612778    1.000000000000

 H         

     33   S      83            18.7311370    0.033494604338
     33   S      84             2.8253944    0.234726953484
     33   S      85             0.6401217    0.813757326146

     34   S      86             0.1612778    1.000000000000

 H         

     35   S      87            18.7311370    0.033494604338
     35   S      88             2.8253944    0.234726953484
     35   S      89             0.6401217    0.813757326146

     36   S      90             0.1612778    1.000000000000

 H         

     37   S      91            18.7311370    0.033494604338
     37   S      92             2.8253944    0.234726953484
     37   S      93             0.6401217    0.813757326146

     38   S      94             0.1612778    1.000000000000

 H         

     39   S      95            18.7311370    0.033494604338
     39   S      96             2.8253944    0.234726953484
     39   S      97             0.6401217    0.813757326146

     40   S      98             0.1612778    1.000000000000

 TOTAL NUMBER OF BASIS SET SHELLS             =   40
 NUMBER OF CARTESIAN GAUSSIAN BASIS FUNCTIONS =  106
 NUMBER OF ELECTRONS                          =   44
 CHARGE OF MOLECULE                           =    0
 SPIN MULTIPLICITY                            =    1
 NUMBER OF OCCUPIED ORBITALS (ALPHA)          =   22
 NUMBER OF OCCUPIED ORBITALS (BETA )          =   22
 TOTAL NUMBER OF ATOMS                        =   14
 THE NUCLEAR REPULSION ENERGY IS      218.9211432627

 SELECTED MURRAY-HANDY-LAMING RADIAL GRID

 LEGACY BECKE'S FUZZY CELL METHOD

 SELECTED ORIGINAL BECKE'S PARTITION FUNCTION

     LEBEDEV GRID-BASED DFT OPTIONS
     ------------------------------
     DFTTYP=B3LYP   
     NRAD  =      96     NLEB  =     590
     NRAD0 =      24     NLEB0 =     110
     SWOFF =    5.00E-03 (PURE SCF -> DFT)
     SWITCH=    3.00E-04 (COARSE -> TIGHT GRID)
     THRESH=    0.00E+00 GTHRE=    1.00E+00

 GRIMME'S EMPIRICAL DISPERSION CORRECTION= F

     $CONTRL OPTIONS
     ---------------
 SCFTYP=RHF          RUNTYP=ENERGY       EXETYP=RUN     
 MPLEVL=       0     CITYP =NONE         CCTYP =NONE         VBTYP =NONE    
 DFTTYP=B3LYP        TDDFT =NONE    
 MULT  =       1     ICHARG=       0     NZVAR =       0     COORD =UNIQUE  
 PP    =NONE         RELWFN=NONE         LOCAL =NONE         NUMGRD=       F
 ISPHER=      -1     NOSYM =       0     MAXIT =     200     UNITS =ANGS    
 PLTORB=       F     MOLPLT=       F     AIMPAC=       F     FRIEND=        
 NPRINT=       7     IREST =       0     GEOM  =INPUT   
 NORMF =       0     NORMP =       0     ITOL  =      20     ICUT  =       9
 INTTYP=BEST         GRDTYP=BEST         QMTTOL= 1.0E-06

     $SYSTEM OPTIONS
     ---------------
  REPLICATED MEMORY=   250000000 WORDS (ON EVERY NODE).
 DISTRIBUTED MEMDDI=           0 MILLION WORDS IN AGGREGATE,
 MEMDDI DISTRIBUTED OVER   1 PROCESSORS IS           0 WORDS/PROCESSOR.
 TOTAL MEMORY REQUESTED ON EACH PROCESSOR=   250000000 WORDS.
 TIMLIM=        2879.00 MINUTES, OR       2.0 DAYS.
 PARALL= F  BALTYP=  DLB     KDIAG=    0  COREFL= F
 MXSEQ2=     300 MXSEQ3=     150  mem10=         0

          ----------------
          PROPERTIES INPUT
          ----------------

     MOMENTS            FIELD           POTENTIAL          DENSITY
 IEMOM =       1   IEFLD =       0   IEPOT =       0   IEDEN =       0
 WHERE =COMASS     WHERE =NUCLEI     WHERE =NUCLEI     WHERE =NUCLEI  
 OUTPUT=BOTH       OUTPUT=BOTH       OUTPUT=BOTH       OUTPUT=BOTH    
 IEMINT=       0   IEFINT=       0                     IEDINT=       0
                                                       MORB  =       0
          EXTRAPOLATION IN EFFECT
          DIIS IN EFFECT
 ORBITAL PRINTING OPTION: NPREO=     1   106     2     1

     -------------------------------
     INTEGRAL TRANSFORMATION OPTIONS
     -------------------------------
     NWORD  =            0
     CUTOFF = 1.0E-09     MPTRAN =       0
     DIRTRF =       T     AOINTS =DUP     

          ----------------------
          INTEGRAL INPUT OPTIONS
          ----------------------
 NOPK  =       1 NORDER=       0 SCHWRZ=       T

     ------------------------------------------
     THE POINT GROUP IS C1 , NAXIS= 0, ORDER= 1
     ------------------------------------------

     DIMENSIONS OF THE SYMMETRY SUBSPACES ARE
 A   =  106

 ..... DONE SETTING UP THE RUN .....
 STEP CPU TIME =     0.01 TOTAL CPU TIME =          0.0 (      0.0 MIN)
 TOTAL WALL CLOCK TIME=          0.0 SECONDS, CPU UTILIZATION IS    50.00%

          ********************
          1 ELECTRON INTEGRALS
          ********************
 ...... END OF ONE-ELECTRON INTEGRALS ......
 STEP CPU TIME =     0.00 TOTAL CPU TIME =          0.0 (      0.0 MIN)
 TOTAL WALL CLOCK TIME=          0.0 SECONDS, CPU UTILIZATION IS    33.33%

          -------------
          GUESS OPTIONS
          -------------
          GUESS =HUCKEL            NORB  =       0          NORDER=       0
          MIX   =       F          PRTMO =       F          PUNMO =       F
          TOLZ  = 1.0E-08          TOLE  = 1.0E-05
          SYMDEN=       F          PURIFY=       F

 INITIAL GUESS ORBITALS GENERATED BY HUCKEL   ROUTINE.
 HUCKEL GUESS REQUIRES     97814 WORDS.

 SYMMETRIES FOR INITIAL GUESS ORBITALS FOLLOW.   BOTH SET(S).
    22 ORBITALS ARE OCCUPIED (    6 CORE ORBITALS).
     7=A        8=A        9=A       10=A       11=A       12=A       13=A   
    14=A       15=A       16=A       17=A       18=A       19=A       20=A   
    21=A       22=A       23=A       24=A       25=A       26=A       27=A   
    28=A       29=A       30=A       31=A       32=A   
 ...... END OF INITIAL ORBITAL SELECTION ......
 STEP CPU TIME =     0.02 TOTAL CPU TIME =          0.0 (      0.0 MIN)
 TOTAL WALL CLOCK TIME=          0.0 SECONDS, CPU UTILIZATION IS    60.00%

                    ----------------------
                    AO INTEGRAL TECHNOLOGY
                    ----------------------
     S,P,L SHELL ROTATED AXIS INTEGRALS, REPROGRAMMED BY
        KAZUYA ISHIMURA (IMS) AND JOSE SIERRA (SYNSTAR).
     S,P,D,L SHELL ROTATED AXIS INTEGRALS PROGRAMMED BY
        KAZUYA ISHIMURA (INSTITUTE FOR MOLECULAR SCIENCE).
     S,P,D,F,G SHELL TO TOTAL QUARTET ANGULAR MOMENTUM SUM 5,
        ERIC PROGRAM BY GRAHAM FLETCHER (ELORET AND NASA ADVANCED
        SUPERCOMPUTING DIVISION, AMES RESEARCH CENTER).
     S,P,D,F,G,L SHELL GENERAL RYS QUADRATURE PROGRAMMED BY
        MICHEL DUPUIS (PACIFIC NORTHWEST NATIONAL LABORATORY).

          --------------------
          2 ELECTRON INTEGRALS
          --------------------

 DIRECT SCF METHOD SKIPS INTEGRAL STORAGE ON DISK.
 DIRECT TRANSFORMATION SKIPS AO INTEGRAL STORAGE ON DISK.
  ...... END OF TWO-ELECTRON INTEGRALS .....
 STEP CPU TIME =     0.01 TOTAL CPU TIME =          0.0 (      0.0 MIN)
 TOTAL WALL CLOCK TIME=          0.1 SECONDS, CPU UTILIZATION IS    66.67%

          --------------------------
             R-B3LYP SCF CALCULATION
          --------------------------

     NUCLEAR ENERGY =       218.9211432627
     MAXIT =  200     NPUNCH=    2
     EXTRAP=T  DAMP=F  SHIFT=F  RSTRCT=F  DIIS=T  DEM=F  SOSCF=F
         DENSITY MATRIX CONVERGENCE THRESHOLD=  2.00E-05
     COARSE -> FINE DFT GRID SWITCH THRESHOLD=  3.00E-04 (SWITCH IN $DFT)
                   HF -> DFT SWITCH THRESHOLD=  5.00E-03 (SWOFF IN $DFT)
     MEMORY REQUIRED FOR RHF ITERS=   1026830 WORDS.

 DIRECT SCF CALCULATION, SCHWRZ=T   FDIFF=T,  DIRTHR=  0.00E+00 NITDIR=10
 SCHWARZ INEQUALITY OVERHEAD:      5666 INTEGRALS, T=        0.00

 DFT CODE IS SWITCHING FROM THE FINE GRID NRAD= 96,  NLEB=  590
                      TO THE COARSE GRID NRAD0= 24, NLEB0=  110

     EXCHANGE FUNCTIONAL   =B88&HFX   
     CORRELATION FUNCTIONAL=LYP88&VWN5
     DFT THRESHOLD         =.504E-08
     GRID CHANGE THRESHOLD =.300E-03
 FOR AN EULER-MACLAURIN QUADRATURE USING  96 RADIAL POINTS:
 SMALLEST GAUSSIAN PRIMITIVE EXPONENT=        0.1612777588 OF TYPE -S-
 ON ATOM NUMBER   7 HAS RADIAL NORMALIZATION=  1.000000
  LARGEST GAUSSIAN PRIMITIVE EXPONENT=     3047.5248800000 OF TYPE -S-
 ON ATOM NUMBER   1 HAS RADIAL NORMALIZATION=  1.000000
 DFT IS SWITCHED OFF, PERFORMING PURE SCF UNTIL SWOFF THRESHOLD IS REACHED.

                                                                                   NONZERO     BLOCKS
 ITER EX DEM     TOTAL ENERGY        E CHANGE  DENSITY CHANGE    DIIS ERROR      INTEGRALS    SKIPPED
          * * *   INITIATING DIIS PROCEDURE   * * *
   1  0  0     -231.2864498454  -231.2864498454   0.141275565   0.449127389       15239812      44281
   2  1  0     -231.7951325054    -0.5086826600   0.060658220   0.065853853       15232981      47734
   3  2  0     -231.8225565693    -0.0274240639   0.016702536   0.035323068       15173453      52823
   4  3  0     -231.8278634909    -0.0053069216   0.006947137   0.004562662       15072388      59581
   5  4  0     -231.8282211927    -0.0003577018   0.001772487   0.001925656       14951563      65029
 CONVERGED TO SWOFF, SO DFT CALCULATION IS NOW SWITCHED ON.
          * * *   INITIATING DIIS PROCEDURE   * * *
   6  5  0     -233.2238540063    -1.3956328136   0.067888368   0.096434889       15241966      44392
   7  6  0     -233.2489316538    -0.0250776475   0.035049073   0.020242665       15196942      50856
   8  7  0     -233.2491471078    -0.0002154540   0.015964876   0.018375500       15098447      56368
   9  8  0     -233.2524595869    -0.0033124791   0.001428275   0.001684914       15031036      60266
  10  9  0     -233.2524709655    -0.0000113786   0.000717424   0.000550997       14649693      79110
  11 10  0     -233.2524726077    -0.0000016422   0.000348325   0.000278156       14317234      91428
  12 11  0     -233.2524730715    -0.0000004638   0.000089152   0.000083512       14096898     100083
 DFT CODE IS SWITCHING BACK TO THE FINE GRID
          * * *   INITIATING DIIS PROCEDURE   * * *
  13 12  0     -233.2549826926    -0.0025096211   0.001137744   0.000982574       15244506      43755
  14 13  0     -233.2549901793    -0.0000074867   0.000199313   0.000149774       14702934      76642
  15 14  0     -233.2549901937    -0.0000000143   0.000154208   0.000112866       14199257      96098
  16 15  0     -233.2549903574    -0.0000001637   0.000063545   0.000024704       13987809     102787
  17 16  0     -233.2549903626    -0.0000000052   0.000029066   0.000013760       13323374     124731
  18 17  0     -233.2549903650    -0.0000000024   0.000001792   0.000001209       12872668     137281

          -----------------
          DENSITY CONVERGED
          -----------------
     TIME TO FORM FOCK OPERATORS=      27.0 SECONDS (       1.5 SEC/ITER)
     FOCK TIME ON FIRST ITERATION=       0.5, LAST ITERATION=       3.2
     TIME TO SOLVE SCF EQUATIONS=       0.1 SECONDS (       0.0 SEC/ITER)

 FINAL R-B3LYP ENERGY IS     -233.2549903650 AFTER  18 ITERATIONS
 DFT EXCHANGE + CORRELATION ENERGY =       -28.6116809153
 TOTAL ELECTRON NUMBER             =        43.9999947183

          ------------
          EIGENVECTORS
          ------------

                      1          2          3          4          5
                  -10.1803   -10.1796   -10.1753   -10.1746   -10.1705
                     A          A          A          A          A   
    1  C  1  S    0.140666   0.982714   0.000857  -0.025514   0.000835
    2  C  1  S    0.006682   0.050037   0.000081  -0.001556  -0.000112
    3  C  1  X   -0.000021  -0.000039   0.000051   0.000226   0.000031
    4  C  1  Y   -0.000069   0.000015  -0.000079   0.000059   0.000003
    5  C  1  Z    0.000038  -0.000002  -0.000060   0.000086  -0.000013
    6  C  1  S    0.003555  -0.022770  -0.001695   0.005143   0.000976
    7  C  1  X   -0.000405   0.001933   0.000465  -0.002448  -0.000286
    8  C  1  Y    0.002456  -0.001277  -0.000360   0.000067   0.000263
    9  C  1  Z   -0.000612   0.000633   0.000570  -0.000567  -0.000045
   10  C  1 XX   -0.001433  -0.008869   0.000009  -0.000104  -0.000004
   11  C  1 YY   -0.001716  -0.008852   0.000008  -0.000009  -0.000009
   12  C  1 ZZ   -0.001419  -0.008720  -0.000023   0.000137  -0.000062
   13  C  1 XY   -0.000040  -0.000012  -0.000003  -0.000202   0.000019
   14  C  1 XZ    0.000021  -0.000070  -0.000018  -0.000041   0.000026
   15  C  1 YZ    0.000062   0.000042  -0.000012  -0.000055  -0.000001
   16  C  2  S    0.982666  -0.140954  -0.025875   0.000587   0.001219
   17  C  2  S    0.049885  -0.007642  -0.001594   0.000045   0.000103
   18  C  2  X   -0.000038  -0.000010   0.000243   0.000044   0.000064
   19  C  2  Y    0.000008   0.000072  -0.000057   0.000082  -0.000017
   20  C  2  Z   -0.000008  -0.000041  -0.000050   0.000080   0.000017
   21  C  2  S   -0.020850   0.009886   0.005310  -0.001506  -0.001769
   22  C  2  X    0.001780  -0.001068  -0.002556   0.000507   0.000673
   23  C  2  Y    0.000535  -0.002714  -0.000147   0.000282   0.000330
   24  C  2  Z   -0.000244   0.000667   0.000265  -0.000569  -0.000177
   25  C  2 XX   -0.008927   0.001128  -0.000114  -0.000003   0.000060
   26  C  2 YY   -0.008974   0.000835  -0.000007   0.000006   0.000032
   27  C  2 ZZ   -0.008752   0.001076   0.000138  -0.000025  -0.000020
   28  C  2 XY    0.000009   0.000031   0.000211   0.000007  -0.000028
   29  C  2 XZ    0.000026  -0.000032  -0.000003   0.000019  -0.000002
   30  C  2 YZ    0.000056   0.000053  -0.000019  -0.000015   0.000016
   31  C  3  S    0.025231  -0.004380   0.988924   0.001708  -0.077992
   32  C  3  S    0.000880  -0.000133   0.049372  -0.000050  -0.004516
   33  C  3  X   -0.000165  -0.000026   0.000151  -0.000037   0.000239
   34  C  3  Y    0.000143   0.000065  -0.000142   0.000035   0.000239
   35  C  3  Z   -0.000002  -0.000027   0.000000   0.000013   0.000008
   36  C  3  S    0.006027  -0.003215  -0.016456   0.001658   0.007174
   37  C  3  X    0.002603  -0.000309  -0.000036  -0.000005  -0.001394
   38  C  3  Y   -0.002754   0.001648   0.003108  -0.000941  -0.002662
   39  C  3  Z   -0.000017   0.000052   0.000058   0.000072  -0.000056
   40  C  3 XX   -0.000626   0.000085  -0.009151   0.000001   0.000435
   41  C  3 YY   -0.000381   0.000085  -0.009251  -0.000038   0.000546
   42  C  3 ZZ   -0.000453   0.000046  -0.009507  -0.000082   0.000581
   43  C  3 XY    0.000133  -0.000028   0.000126   0.000015  -0.000016
   44  C  3 XZ    0.000018  -0.000016  -0.000013   0.000022   0.000014
   45  C  3 YZ   -0.000005  -0.000043   0.000002  -0.000006   0.000004
   46  C  4  S    0.000926  -0.000488   0.083234   0.004375   0.906871
   47  C  4  S    0.000040  -0.000264   0.003473   0.000197   0.045371
   48  C  4  X   -0.000095  -0.000061  -0.000347  -0.000006   0.000118
   49  C  4  Y   -0.000024   0.000045  -0.000153   0.000084  -0.000060
   50  C  4  Z    0.000017  -0.000037  -0.000003   0.000013  -0.000019
   51  C  4  S   -0.001971   0.003366   0.006009  -0.001929  -0.014140
   52  C  4  X   -0.001023   0.001636   0.003394  -0.001080  -0.002631
   53  C  4  Y    0.001387  -0.001309  -0.000005   0.000399   0.000590
   54  C  4  Z   -0.000005  -0.000017  -0.000057  -0.000032   0.000166
   55  C  4 XX    0.000017  -0.000042  -0.001043  -0.000029  -0.008493
   56  C  4 YY    0.000024  -0.000004  -0.001079  -0.000019  -0.008635
   57  C  4 ZZ   -0.000045  -0.000113  -0.000999  -0.000046  -0.008820
   58  C  4 XY    0.000033   0.000020  -0.000056  -0.000041   0.000105
   59  C  4 XZ   -0.000010   0.000006  -0.000006   0.000012  -0.000003
   60  C  4 YZ   -0.000001  -0.000003   0.000001   0.000001  -0.000004
   61  C  5  S   -0.000142   0.001083   0.002764   0.093844   0.393968
   62  C  5  S   -0.000219   0.000105   0.000124   0.003997   0.019375
   63  C  5  X   -0.000079  -0.000073  -0.000005  -0.000345   0.000011
   64  C  5  Y   -0.000028   0.000024  -0.000084   0.000158  -0.000197
   65  C  5  Z    0.000017  -0.000034  -0.000003  -0.000030  -0.000010
   66  C  5  S    0.002542  -0.002851  -0.002066   0.005863  -0.000791
   67  C  5  X    0.001151  -0.001370  -0.001132   0.003313   0.000411
   68  C  5  Y    0.000804  -0.001707  -0.000425  -0.000030   0.001879
   69  C  5  Z    0.000142  -0.000158  -0.000121   0.000401   0.000064
   70  C  5 XX   -0.000032   0.000029  -0.000011  -0.001138  -0.003860
   71  C  5 YY    0.000007   0.000019   0.000001  -0.001177  -0.004154
   72  C  5 ZZ   -0.000110  -0.000013  -0.000032  -0.001101  -0.003981
   73  C  5 XY   -0.000028  -0.000030   0.000039   0.000050   0.000008
   74  C  5 XZ    0.000007   0.000021  -0.000015   0.000004   0.000035
   75  C  5 YZ   -0.000005   0.000010   0.000002  -0.000005  -0.000027
   76  C  6  S    0.002983   0.025084  -0.002359   0.987968  -0.041502
   77  C  6  S    0.000108   0.000878  -0.000255   0.049336  -0.002329
   78  C  6  X   -0.000076  -0.000144  -0.000035   0.000137   0.000137
   79  C  6  Y   -0.000105  -0.000109  -0.000033   0.000156  -0.000131
   80  C  6  Z    0.000012  -0.000024  -0.000012   0.000042  -0.000008
   81  C  6  S   -0.001223   0.006603   0.001807  -0.016354   0.001186
   82  C  6  X    0.000454   0.002534  -0.000024   0.000015  -0.000713
   83  C  6  Y   -0.000710   0.003027   0.000993  -0.003062   0.000113
   84  C  6  Z   -0.000024   0.000464  -0.000009  -0.000263  -0.000024
   85  C  6 XX   -0.000103  -0.000607   0.000042  -0.009151   0.000328
   86  C  6 YY   -0.000029  -0.000383   0.000001  -0.009256   0.000358
   87  C  6 ZZ   -0.000091  -0.000445  -0.000046  -0.009501   0.000327
   88  C  6 XY   -0.000006  -0.000134  -0.000014  -0.000139  -0.000019
   89  C  6 XZ    0.000010  -0.000053  -0.000010   0.000051  -0.000004
   90  C  6 YZ   -0.000049  -0.000000  -0.000003  -0.000001   0.000001
   91  H  7  S   -0.000234   0.000171   0.000012  -0.000226  -0.000041
   92  H  7  S    0.000457   0.002855  -0.000267   0.000538  -0.000030
   93  H  8  S   -0.000181   0.000125   0.000074  -0.000115  -0.000016
   94  H  8  S    0.000213   0.002819   0.000197   0.000256   0.000053
   95  H  9  S    0.000088  -0.000270  -0.000218  -0.000004   0.000049
   96  H  9  S    0.002846  -0.000347   0.000526  -0.000302  -0.000096
   97  H 10  S    0.000083  -0.000217  -0.000134   0.000079   0.000048
   98  H 10  S    0.002769  -0.000590   0.000289   0.000221   0.000055
   99  H 11  S   -0.000044  -0.000037  -0.000422   0.000020   0.000038
  100  H 11  S    0.000639  -0.000188   0.001373   0.000234   0.000339
  101  H 12  S   -0.000082   0.000056  -0.000004  -0.000044  -0.000407
  102  H 12  S   -0.000271   0.000555   0.000740  -0.000147   0.001230
  103  H 13  S    0.000025  -0.000091  -0.000043  -0.000010  -0.000172
  104  H 13  S    0.000401  -0.000378  -0.000162   0.000732   0.000972
  105  H 14  S   -0.000045  -0.000038   0.000023  -0.000415  -0.000004
  106  H 14  S    0.000012   0.000626   0.000231   0.001366   0.000016

                      6          7          8          9         10
                  -10.1700    -0.8280    -0.7360    -0.7326    -0.6114
                     A          A          A          A          A   
    1  C  1  S    0.001170  -0.088620  -0.105165   0.074899  -0.101095
    2  C  1  S    0.000256   0.165292   0.203614  -0.144680   0.204597
    3  C  1  X    0.000067  -0.035761   0.029233   0.040961   0.021081
    4  C  1  Y    0.000018   0.019130   0.044594   0.062569  -0.099971
    5  C  1  Z   -0.000016  -0.009792  -0.004250   0.000875   0.027245
    6  C  1  S   -0.003484   0.128482   0.171773  -0.123535   0.195305
    7  C  1  X    0.001147  -0.006583   0.011276   0.005139   0.013134
    8  C  1  Y   -0.000661   0.004340   0.007399   0.014575  -0.038414
    9  C  1  Z    0.000499   0.000537  -0.001063  -0.002053   0.012106
   10  C  1 XX    0.000094   0.001669  -0.005852  -0.005447  -0.000675
   11  C  1 YY    0.000053   0.001430   0.004259   0.006577  -0.010628
   12  C  1 ZZ    0.000036  -0.002955   0.000325   0.000301   0.004776
   13  C  1 XY    0.000018   0.000523  -0.001868  -0.003677  -0.002944
   14  C  1 XZ   -0.000005   0.000913  -0.001580  -0.000847  -0.001608
   15  C  1 YZ    0.000032  -0.000745  -0.001444  -0.002104   0.003235
   16  C  2  S   -0.000284  -0.088460  -0.116497  -0.056281   0.099629
   17  C  2  S   -0.000251   0.165155   0.225393   0.108642  -0.201660
   18  C  2  X   -0.000030  -0.036647   0.020750  -0.045647  -0.021083
   19  C  2  Y    0.000008  -0.019289  -0.033256   0.069299  -0.102402
   20  C  2  Z   -0.000004   0.005227   0.007188  -0.005928   0.024676
   21  C  2  S    0.003118   0.128005   0.191210   0.093278  -0.192742
   22  C  2  X   -0.001044  -0.006074   0.009951  -0.006607  -0.013572
   23  C  2  Y   -0.000654  -0.003953  -0.005047   0.016065  -0.039129
   24  C  2  Z    0.000221  -0.000883   0.002321  -0.002308   0.010622
   25  C  2 XX   -0.000060   0.001749  -0.005090   0.006487   0.000712
   26  C  2 YY   -0.000040   0.001450   0.003067  -0.007213   0.010702
   27  C  2 ZZ   -0.000067  -0.003086   0.000493  -0.000532  -0.004966
   28  C  2 XY    0.000001  -0.000435   0.001261  -0.004216  -0.002256
   29  C  2 XZ   -0.000020  -0.000237   0.000432  -0.000066  -0.000487
   30  C  2 YZ   -0.000016  -0.000807  -0.000896   0.001750  -0.003610
   31  C  3  S    0.030748  -0.092429   0.002635  -0.127479  -0.016373
   32  C  3  S    0.001820   0.175642  -0.004971   0.247882   0.032484
   33  C  3  X   -0.000056  -0.009129   0.108040  -0.024655  -0.176855
   34  C  3  Y   -0.000065  -0.053273   0.010385  -0.019344  -0.007571
   35  C  3  Z    0.000015  -0.000790  -0.000569  -0.001897   0.008562
   36  C  3  S   -0.005932   0.113346  -0.006297   0.197694   0.040724
   37  C  3  X    0.000481   0.002254   0.020405  -0.000255  -0.043680
   38  C  3  Y    0.002599  -0.004150   0.005981   0.000338  -0.005384
   39  C  3  Z   -0.000026  -0.000101  -0.000445  -0.000142   0.002612
   40  C  3 XX   -0.000065   0.003478   0.002801   0.002871  -0.002809
   41  C  3 YY   -0.000136   0.002216  -0.000481   0.000990   0.000655
   42  C  3 ZZ   -0.000224  -0.010115   0.000462  -0.012532  -0.001477
   43  C  3 XY    0.000040   0.000599  -0.009503   0.001533   0.008250
   44  C  3 XZ   -0.000014  -0.000239  -0.000316  -0.000459   0.000581
   45  C  3 YZ    0.000010   0.000167   0.000036   0.000326  -0.000631
   46  C  4  S   -0.395295  -0.095954   0.099709  -0.079461  -0.080899
   47  C  4  S   -0.020275   0.182692  -0.194184   0.157292   0.163995
   48  C  4  X   -0.000129   0.052119   0.006744   0.060602   0.009997
   49  C  4  Y    0.000353  -0.023742   0.049705   0.080017   0.099736
   50  C  4  Z    0.000021  -0.002876   0.004524  -0.000603   0.004975
   51  C  4  S    0.013926   0.118873  -0.139289   0.100016   0.120473
   52  C  4  X    0.003437   0.004325   0.008942  -0.012461  -0.027202
   53  C  4  Y   -0.003334  -0.003515   0.009035   0.021647   0.030861
   54  C  4  Z   -0.000171  -0.000132   0.000826  -0.000105   0.002006
   55  C  4 XX    0.003458   0.002600   0.001966   0.006342   0.003591
   56  C  4 YY    0.003171   0.003274  -0.006016  -0.006449  -0.007249
   57  C  4 ZZ    0.003624  -0.010593   0.010167  -0.007279  -0.006670
   58  C  4 XY   -0.000128   0.000296   0.001626   0.004905  -0.000304
   59  C  4 XZ   -0.000026  -0.000166   0.000200  -0.000265   0.000082
   60  C  4 YZ   -0.000039   0.000635  -0.000984  -0.000043  -0.000306
   61  C  5  S    0.906414  -0.096660   0.111671   0.061142   0.079312
   62  C  5  S    0.045733   0.183994  -0.217747  -0.121446  -0.160566
   63  C  5  X    0.000189   0.052676  -0.003991  -0.062617  -0.016284
   64  C  5  Y    0.000299   0.023387  -0.035568   0.087591   0.103452
   65  C  5  Z    0.000029   0.006641  -0.002747  -0.004203   0.006694
   66  C  5  S   -0.019890   0.118899  -0.153632  -0.074043  -0.117138
   67  C  5  X   -0.004272   0.003210   0.011692   0.010369   0.025480
   68  C  5  Y   -0.002840   0.003480  -0.005426   0.022866   0.031617
   69  C  5  Z   -0.000577   0.000192   0.000768   0.001547   0.005390
   70  C  5 XX   -0.008314   0.002477   0.001018  -0.006445  -0.003558
   71  C  5 YY   -0.008203   0.003135  -0.004801   0.007508   0.007401
   72  C  5 ZZ   -0.008660  -0.010494   0.011076   0.005268   0.006405
   73  C  5 XY   -0.000186  -0.000493  -0.000472   0.005045  -0.000080
   74  C  5 XZ    0.000028   0.001600  -0.001425  -0.001490  -0.001077
   75  C  5 YZ    0.000022   0.000730  -0.001192   0.000458  -0.000046
   76  C  6  S   -0.084879  -0.093110   0.024615   0.124721   0.019632
   77  C  6  S   -0.004880   0.176703  -0.047678  -0.242247  -0.038959
   78  C  6  X    0.000210  -0.010698   0.110160   0.007446   0.175316
   79  C  6  Y   -0.000214   0.054093  -0.013882  -0.018345  -0.006129
   80  C  6  Z    0.000015   0.002442   0.012233  -0.003784   0.028433
   81  C  6  S    0.009401   0.114696  -0.040388  -0.192920  -0.046100
   82  C  6  X   -0.001340   0.002044   0.020088  -0.003469   0.042886
   83  C  6  Y    0.003718   0.004347  -0.005655   0.001366  -0.004438
   84  C  6  Z    0.000014   0.000564   0.002426  -0.000913   0.007311
   85  C  6 XX    0.000434   0.003242   0.002094  -0.002996   0.002655
   86  C  6 YY    0.000560   0.002158  -0.000519  -0.000756  -0.000604
   87  C  6 ZZ    0.000646  -0.009917   0.002769   0.011841   0.002102
   88  C  6 XY    0.000036  -0.000797   0.009626   0.000136   0.008205
   89  C  6 XZ   -0.000034   0.001971   0.000701  -0.002470   0.001412
   90  C  6 YZ   -0.000001   0.000785   0.000920  -0.001260   0.001439
   91  H  7  S    0.000093   0.043282   0.065739  -0.047199   0.096260
   92  H  7  S   -0.000136   0.002585   0.015457  -0.007843   0.034534
   93  H  8  S    0.000090   0.041110   0.068412  -0.048034   0.096302
   94  H  8  S    0.000100   0.005070   0.014884  -0.010045   0.036193
   95  H  9  S   -0.000093   0.042898   0.073043   0.035212  -0.095333
   96  H  9  S    0.000066   0.002779   0.016661   0.005317  -0.034004
   97  H 10  S   -0.000076   0.041052   0.075104   0.035759  -0.093936
   98  H 10  S   -0.000023   0.004736   0.016229   0.006921  -0.035426
   99  H 11  S   -0.000047   0.037229   0.000868   0.077179   0.011543
  100  H 11  S   -0.000303   0.004053  -0.001383   0.017479   0.004794
  101  H 12  S    0.000181   0.037916  -0.058993   0.045637   0.078310
  102  H 12  S    0.000108   0.003948  -0.012975   0.002629   0.022803
  103  H 13  S   -0.000398   0.037745  -0.065037  -0.034007  -0.075299
  104  H 13  S    0.000755   0.003496  -0.012740  -0.000168  -0.021642
  105  H 14  S    0.000063   0.037045  -0.011888  -0.074966  -0.014107
  106  H 14  S    0.000430   0.003992  -0.003959  -0.016592  -0.005561

                     11         12         13         14         15
                   -0.5830    -0.4975    -0.4702    -0.4444    -0.4161
                     A          A          A          A          A   
    1  C  1  S    0.036942   0.002434  -0.040721   0.023413   0.000599
    2  C  1  S   -0.075618  -0.005090   0.082775  -0.047735   0.000393
    3  C  1  X   -0.102869  -0.127089   0.075770  -0.101389  -0.177983
    4  C  1  Y   -0.086467   0.082548   0.001053   0.066164  -0.170251
    5  C  1  Z   -0.007811  -0.009539   0.172183   0.241046   0.019718
    6  C  1  S   -0.068271  -0.009631   0.104630  -0.068494   0.004822
    7  C  1  X   -0.039370  -0.052873   0.036907  -0.038597  -0.073596
    8  C  1  Y   -0.024920   0.037499   0.001176   0.032137  -0.080618
    9  C  1  Z   -0.001792   0.001187   0.072737   0.105986   0.005873
   10  C  1 XX    0.007417   0.002761  -0.004456  -0.003885   0.001702
   11  C  1 YY   -0.001827  -0.001699  -0.007767   0.003715  -0.001603
   12  C  1 ZZ   -0.002875  -0.005194   0.009119   0.002880  -0.001062
   13  C  1 XY    0.005399  -0.002487  -0.007707   0.009379   0.003591
   14  C  1 XZ    0.002875   0.003754   0.001672   0.008440   0.002835
   15  C  1 YZ    0.001930  -0.002666   0.000489  -0.001380   0.001026
   16  C  2  S    0.040432   0.003527   0.040719  -0.023247   0.000015
   17  C  2  S   -0.082723  -0.007104  -0.082882   0.047059   0.001603
   18  C  2  X   -0.104752  -0.129321  -0.091999   0.069028  -0.174332
   19  C  2  Y    0.082739  -0.081482   0.005736   0.067020   0.171469
   20  C  2  Z   -0.006882   0.004014   0.156637   0.255573  -0.038104
   21  C  2  S   -0.075772  -0.013171  -0.104582   0.070175   0.006914
   22  C  2  X   -0.039994  -0.052660  -0.043682   0.023616  -0.072926
   23  C  2  Y    0.023295  -0.037084   0.003125   0.032880   0.081100
   24  C  2  Z   -0.003820  -0.003091   0.065670   0.111701  -0.013490
   25  C  2 XX    0.007961   0.003776   0.003469   0.001228   0.002662
   26  C  2 YY   -0.001428  -0.001480   0.007684  -0.003657  -0.001788
   27  C  2 ZZ   -0.003630  -0.006372  -0.007782  -0.000094  -0.001915
   28  C  2 XY   -0.005723   0.002798  -0.007703   0.008941  -0.003518
   29  C  2 XZ   -0.000960  -0.002004   0.004293   0.009287  -0.001706
   30  C  2 YZ    0.001011  -0.002212  -0.001611   0.003074   0.000454
   31  C  3  S   -0.104104   0.004498  -0.056080   0.032863  -0.002672
   32  C  3  S    0.212301  -0.009626   0.117928  -0.067576   0.005767
   33  C  3  X   -0.004910   0.005664   0.065675  -0.002007   0.276748
   34  C  3  Y    0.072556  -0.209540   0.121144  -0.048499   0.034055
   35  C  3  Z    0.000848  -0.000877   0.041248   0.082821  -0.019919
   36  C  3  S    0.171727  -0.024006   0.109367  -0.090055   0.025813
   37  C  3  X    0.007510   0.007927   0.029129  -0.007992   0.087813
   38  C  3  Y    0.042373  -0.071177   0.057166  -0.013607   0.000885
   39  C  3  Z    0.000737   0.000220   0.018410   0.039407  -0.009373
   40  C  3 XX   -0.007689  -0.003011  -0.012053   0.008605  -0.001115
   41  C  3 YY    0.004445  -0.001514   0.010395  -0.006354   0.003344
   42  C  3 ZZ   -0.008797  -0.000297  -0.004549   0.002272  -0.000451
   43  C  3 XY   -0.000928   0.001650  -0.002125   0.000636  -0.005022
   44  C  3 XZ   -0.000305   0.000067   0.003010   0.004341  -0.000811
   45  C  3 YZ    0.000113  -0.000351  -0.001837  -0.003953   0.000719
   46  C  4  S    0.056606   0.005369   0.061710  -0.031764   0.006461
   47  C  4  S   -0.117128  -0.011485  -0.129807   0.063999  -0.010437
   48  C  4  X    0.134610   0.201827   0.081458  -0.081950  -0.146451
   49  C  4  Y    0.148495  -0.112789  -0.065905   0.038575  -0.231466
   50  C  4  Z    0.007018  -0.000924   0.013324   0.053418  -0.013941
   51  C  4  S   -0.093435  -0.017363  -0.114702   0.087841  -0.012471
   52  C  4  X    0.050379   0.069983   0.053779  -0.022486  -0.054673
   53  C  4  Y    0.036250  -0.034637  -0.024749   0.005395  -0.082179
   54  C  4  Z    0.001330   0.000790   0.007022   0.025147  -0.005167
   55  C  4 XX    0.003704  -0.002816  -0.005239   0.003678  -0.001427
   56  C  4 YY   -0.004273  -0.002083   0.009497  -0.004680   0.003466
   57  C  4 ZZ    0.004683   0.000003   0.004337  -0.002822   0.000598
   58  C  4 XY    0.006849  -0.001289   0.010441  -0.008136  -0.001764
   59  C  4 XZ   -0.000071  -0.000113   0.002036   0.002850  -0.000171
   60  C  4 YZ   -0.001195  -0.000400   0.000276  -0.000854   0.000408
   61  C  5  S    0.057922   0.004126  -0.062245   0.032183   0.007439
   62  C  5  S   -0.119771  -0.008871   0.130673  -0.065066  -0.012249
   63  C  5  X    0.135259   0.196461  -0.089502   0.074265  -0.150742
   64  C  5  Y   -0.145824   0.112561  -0.069470   0.022150   0.230835
   65  C  5  Z    0.004616   0.025038   0.004406   0.060091   0.008090
   66  C  5  S   -0.094711  -0.016006   0.116026  -0.089625  -0.016034
   67  C  5  X    0.051160   0.068116  -0.057355   0.019904  -0.055488
   68  C  5  Y   -0.034490   0.034369  -0.026166   0.001129   0.080187
   69  C  5  Z    0.003194   0.007782   0.001553   0.026663   0.003470
   70  C  5 XX    0.003728  -0.002651   0.004662  -0.003492  -0.001558
   71  C  5 YY   -0.004270  -0.002276  -0.009256   0.004371   0.003803
   72  C  5 ZZ    0.004684  -0.000181  -0.003832   0.003106   0.000795
   73  C  5 XY   -0.006528   0.001775   0.010259  -0.008326   0.001723
   74  C  5 XZ   -0.000556  -0.000411   0.003599   0.001764   0.000431
   75  C  5 YZ   -0.001776  -0.000467   0.000776   0.000057   0.000503
   76  C  6  S   -0.103083   0.006698   0.056847  -0.033154  -0.002969
   77  C  6  S    0.209943  -0.014212  -0.119340   0.068301   0.006314
   78  C  6  X    0.000723   0.002178  -0.074290  -0.012712   0.273134
   79  C  6  Y   -0.070172   0.211019   0.110756  -0.053098  -0.039823
   80  C  6  Z   -0.003071   0.012021   0.041615   0.076249   0.051288
   81  C  6  S    0.169181  -0.029380  -0.110594   0.089491   0.027929
   82  C  6  X    0.009069   0.006498  -0.032857   0.000192   0.086238
   83  C  6  Y   -0.042398   0.072050   0.053605  -0.017839  -0.001778
   84  C  6  Z   -0.001600   0.003895   0.018762   0.037405   0.020547
   85  C  6 XX   -0.007463  -0.002786   0.011374  -0.009413  -0.001818
   86  C  6 YY    0.004189  -0.001598  -0.010439   0.005847   0.003797
   87  C  6 ZZ   -0.008574  -0.000202   0.005479  -0.000994  -0.000040
   88  C  6 XY    0.000867  -0.001608  -0.002156   0.000045   0.005000
   89  C  6 XZ    0.000439  -0.000341   0.003663   0.003203   0.001313
   90  C  6 YZ    0.001023  -0.000641   0.000932   0.004465   0.001639
   91  H  7  S   -0.038271  -0.030961   0.140074   0.093465  -0.000729
   92  H  7  S   -0.018027  -0.024084   0.089585   0.075728  -0.001948
   93  H  8  S   -0.042857  -0.067620   0.014897  -0.160179  -0.038744
   94  H  8  S   -0.017637  -0.042307   0.000365  -0.116970  -0.034414
   95  H  9  S   -0.042139  -0.039507  -0.136717  -0.092404  -0.005350
   96  H  9  S   -0.019573  -0.029091  -0.087092  -0.074836  -0.005685
   97  H 10  S   -0.046250  -0.063977  -0.010498   0.163317  -0.034425
   98  H 10  S   -0.019015  -0.040120   0.002507   0.119821  -0.031173
   99  H 11  S    0.118225  -0.112959   0.124397  -0.063170   0.021370
  100  H 11  S    0.048172  -0.073885   0.077270  -0.043660   0.021883
  101  H 12  S   -0.069455  -0.124913  -0.119067   0.087525   0.007842
  102  H 12  S   -0.028247  -0.083297  -0.068968   0.064935   0.007423
  103  H 13  S   -0.070723  -0.121533   0.123231  -0.082716   0.008109
  104  H 13  S   -0.028665  -0.081523   0.072095  -0.060645   0.008005
  105  H 14  S    0.115700  -0.115668  -0.120812   0.063574   0.026181
  106  H 14  S    0.046814  -0.075533  -0.074832   0.043062   0.026468

                     16         17         18         19         20
                   -0.4039    -0.3805    -0.3615    -0.3231    -0.3132
                     A          A          A          A          A   
    1  C  1  S   -0.010418   0.023782   0.005314   0.007279  -0.002328
    2  C  1  S    0.019267  -0.052099  -0.013708  -0.017222   0.009732
    3  C  1  X   -0.112115   0.197293  -0.009697   0.255829   0.053457
    4  C  1  Y    0.002429  -0.215718  -0.054127   0.002123   0.281812
    5  C  1  Z   -0.040283   0.011931   0.306698   0.026724   0.049768
    6  C  1  S    0.062934  -0.098845  -0.013505  -0.063014  -0.017970
    7  C  1  X   -0.046588   0.098897  -0.005939   0.142698   0.043992
    8  C  1  Y    0.029445  -0.081890  -0.029302  -0.007592   0.137869
    9  C  1  Z   -0.024699   0.014122   0.140121   0.022833   0.020769
   10  C  1 XX    0.007949   0.006005  -0.004718  -0.000403  -0.011850
   11  C  1 YY   -0.006178  -0.005800  -0.009481  -0.002069   0.009220
   12  C  1 ZZ   -0.003364   0.006235   0.017103   0.007337   0.000730
   13  C  1 XY    0.003988  -0.002406   0.003190  -0.017676   0.003171
   14  C  1 XZ    0.001309  -0.005358   0.006111  -0.003978   0.002605
   15  C  1 YZ   -0.001548   0.006290  -0.015083   0.001298  -0.006757
   16  C  2  S    0.010434   0.023353   0.003625  -0.006625  -0.003293
   17  C  2  S   -0.019415  -0.051040  -0.010489   0.015220   0.011374
   18  C  2  X    0.115829   0.200412   0.029436  -0.260757   0.024214
   19  C  2  Y    0.007103   0.216671   0.053613   0.045133  -0.272801
   20  C  2  Z   -0.045380   0.017042  -0.304177  -0.007235  -0.022760
   21  C  2  S   -0.062506  -0.099826  -0.004305   0.063125  -0.005562
   22  C  2  X    0.049301   0.103871   0.011662  -0.147995   0.019504
   23  C  2  Y    0.031771   0.083574   0.025007   0.012489  -0.135864
   24  C  2  Z   -0.028408   0.001422  -0.137820   0.001750  -0.005131
   25  C  2 XX   -0.008173   0.004441  -0.001732   0.003133  -0.010204
   26  C  2 YY    0.005617  -0.005893  -0.010211   0.000455   0.009548
   27  C  2 ZZ    0.004356   0.007993   0.014574  -0.008033  -0.002043
   28  C  2 XY    0.003494   0.001741  -0.000849  -0.016768  -0.004270
   29  C  2 XZ   -0.000997   0.004769  -0.009832  -0.001669  -0.002229
   30  C  2 YZ    0.000848   0.006685  -0.015584  -0.002727  -0.008185
   31  C  3  S    0.025353   0.001275   0.002518  -0.005447   0.007860
   32  C  3  S   -0.057089  -0.005125  -0.005736   0.019728  -0.022131
   33  C  3  X    0.024549  -0.055996  -0.050350   0.276021  -0.007841
   34  C  3  Y    0.300906   0.031955  -0.033280  -0.067699   0.202239
   35  C  3  Z   -0.003394   0.005541  -0.118761  -0.009940  -0.030404
   36  C  3  S   -0.088822  -0.003534  -0.010108  -0.041351  -0.006439
   37  C  3  X    0.017413   0.021273  -0.023651   0.110245   0.002512
   38  C  3  Y    0.089794   0.000318  -0.008888   0.024891   0.059719
   39  C  3  Z   -0.002013   0.003520  -0.070969  -0.005858  -0.023774
   40  C  3 XX   -0.003287  -0.001562   0.001929   0.004903  -0.014945
   41  C  3 YY    0.011591   0.002611  -0.004529  -0.005675   0.021971
   42  C  3 ZZ    0.000866   0.000199   0.001711   0.000354  -0.000609
   43  C  3 XY   -0.002951   0.012752   0.002113  -0.010064  -0.001337
   44  C  3 XZ   -0.000923   0.000955  -0.006519  -0.001276   0.000620
   45  C  3 YZ    0.000353   0.000283   0.002813   0.000108   0.001038
   46  C  4  S    0.012686  -0.022356  -0.003841  -0.000381  -0.003291
   47  C  4  S   -0.029188   0.051630   0.007772  -0.010285   0.010415
   48  C  4  X   -0.212048   0.157932   0.035796  -0.202413  -0.015697
   49  C  4  Y    0.009290  -0.190605   0.046838  -0.012277  -0.229806
   50  C  4  Z    0.011730  -0.006872  -0.039649   0.014659  -0.042420
   51  C  4  S   -0.036223   0.085327   0.007807   0.100954   0.023488
   52  C  4  X   -0.033636   0.054128   0.010668  -0.007253  -0.010970
   53  C  4  Y    0.039521  -0.045234   0.016201  -0.044824  -0.085342
   54  C  4  Z    0.007285  -0.002199  -0.015604   0.007010  -0.020920
   55  C  4 XX   -0.002383  -0.013416   0.000420   0.011625  -0.012693
   56  C  4 YY    0.009549   0.007121  -0.001349  -0.003689   0.010904
   57  C  4 ZZ    0.000069  -0.000664   0.000083  -0.001825   0.000193
   58  C  4 XY   -0.011716   0.002971   0.000449  -0.016681   0.003048
   59  C  4 XZ   -0.000492  -0.000089  -0.003333  -0.001171  -0.000949
   60  C  4 YZ   -0.000938   0.000310  -0.003531  -0.000732   0.000473
   61  C  5  S   -0.012843  -0.021627  -0.001456   0.000141  -0.002664
   62  C  5  S    0.029637   0.049770   0.002644   0.010108   0.011159
   63  C  5  X    0.209236   0.153656   0.016362   0.202518   0.017642
   64  C  5  Y    0.011608   0.192183  -0.046929  -0.043883   0.228295
   65  C  5  Z    0.037913   0.026953   0.042894   0.029247  -0.002202
   66  C  5  S    0.034075   0.087276  -0.003827  -0.102206   0.001470
   67  C  5  X    0.031421   0.056869   0.002333   0.010017  -0.009860
   68  C  5  Y    0.040769   0.046980  -0.017647  -0.055487   0.078448
   69  C  5  Z    0.013631   0.009441   0.017029   0.004968  -0.009503
   70  C  5 XX    0.002561  -0.013231  -0.000534  -0.009332  -0.014141
   71  C  5 YY   -0.009656   0.007159  -0.000219   0.001938   0.011608
   72  C  5 ZZ   -0.000182  -0.000861   0.000669   0.001290   0.000088
   73  C  5 XY   -0.011504  -0.002961   0.000501  -0.016066  -0.006076
   74  C  5 XZ   -0.000149  -0.001714   0.003418  -0.003072  -0.002560
   75  C  5 YZ   -0.000839   0.000015  -0.003470  -0.000647  -0.000637
   76  C  6  S   -0.024690   0.000577   0.004243   0.004248   0.007431
   77  C  6  S    0.055566  -0.003174  -0.010501  -0.016241  -0.023053
   78  C  6  X   -0.026595  -0.050878  -0.060598  -0.269153  -0.045672
   79  C  6  Y    0.301461  -0.031917   0.003265  -0.037144  -0.208775
   80  C  6  Z    0.017925  -0.009467   0.115784  -0.042926  -0.025785
   81  C  6  S    0.087277  -0.006651  -0.011419   0.040886   0.011252
   82  C  6  X   -0.018413   0.023269  -0.032874  -0.107706  -0.013237
   83  C  6  Y    0.090674  -0.003445   0.000477   0.032078  -0.051774
   84  C  6  Z    0.005619   0.000607   0.068932  -0.017783  -0.005560
   85  C  6 XX    0.003355  -0.001389  -0.000272  -0.002165  -0.015882
   86  C  6 YY   -0.011651   0.002663  -0.003614   0.002231   0.022702
   87  C  6 ZZ   -0.000908  -0.000035   0.003391  -0.000647  -0.000572
   88  C  6 XY   -0.002796  -0.012629  -0.002153  -0.010358  -0.000536
   89  C  6 XZ   -0.000189  -0.001212   0.005883  -0.001942  -0.000725
   90  C  6 YZ   -0.000860  -0.000870   0.002619  -0.001174   0.001027
   91  H  7  S   -0.031548   0.035295   0.201280   0.056575   0.018533
   92  H  7  S   -0.027556   0.035781   0.187421   0.052943   0.021671
   93  H  8  S   -0.026987   0.128765  -0.108637   0.118669  -0.086393
   94  H  8  S   -0.025838   0.124880  -0.101016   0.121886  -0.093148
   95  H  9  S    0.044897   0.038841   0.200501  -0.058319  -0.004179
   96  H  9  S    0.037942   0.038590   0.186861  -0.055259  -0.000351
   97  H 10  S    0.018291   0.130121  -0.111040  -0.103328  -0.090369
   98  H 10  S    0.018830   0.125374  -0.104145  -0.105949  -0.094777
   99  H 11  S    0.162424   0.021963  -0.028873  -0.050224   0.155434
  100  H 11  S    0.158543   0.028199  -0.029912  -0.070614   0.177472
  101  H 12  S    0.107801  -0.128274  -0.002967   0.140908  -0.072689
  102  H 12  S    0.105923  -0.133942  -0.005931   0.174170  -0.084375
  103  H 13  S   -0.108088  -0.128423   0.002846  -0.130234  -0.096527
  104  H 13  S   -0.106428  -0.132775   0.000217  -0.161743  -0.114410
  105  H 14  S   -0.164043   0.022886  -0.014955   0.026115   0.162720
  106  H 14  S   -0.159803   0.028002  -0.014837   0.043174   0.188257

                     21         22         23         24         25
                   -0.3002    -0.1970    -0.0133     0.0957     0.1072
                     A          A          A          A          A   
    1  C  1  S    0.001997   0.004145   0.005621  -0.068477  -0.000223
    2  C  1  S   -0.008347  -0.012264  -0.008732   0.089824  -0.004672
    3  C  1  X    0.019942  -0.009513  -0.002743   0.109953  -0.002790
    4  C  1  Y    0.006669  -0.021993  -0.022768  -0.061810   0.015036
    5  C  1  Z   -0.079296   0.094655  -0.006042   0.029360   0.034030
    6  C  1  S    0.014160  -0.014318  -0.053468   1.056843   0.078718
    7  C  1  X   -0.024682  -0.021371  -0.055581   0.272661   0.010249
    8  C  1  Y    0.013226  -0.007596  -0.066520  -0.241815  -0.026972
    9  C  1  Z   -0.035593   0.052142   0.020081   0.149392   0.193325
   10  C  1 XX    0.002786  -0.006036   0.006291  -0.005842   0.009291
   11  C  1 YY    0.002064  -0.005056   0.003683   0.002712   0.001931
   12  C  1 ZZ   -0.005765   0.011553  -0.008921  -0.013241  -0.010695
   13  C  1 XY   -0.001245  -0.000359  -0.000162   0.011177  -0.003911
   14  C  1 XZ   -0.010721   0.013710  -0.019485  -0.002716  -0.012018
   15  C  1 YZ   -0.002354  -0.000852  -0.006816  -0.004599  -0.006557
   16  C  2  S   -0.002595   0.006013  -0.008610  -0.068168   0.001119
   17  C  2  S    0.010401  -0.014957   0.014821   0.089732  -0.004357
   18  C  2  X   -0.001628   0.005698   0.001168   0.114984   0.007523
   19  C  2  Y   -0.047050   0.024027  -0.028072   0.058850  -0.023217
   20  C  2  Z   -0.081761  -0.096179  -0.005162  -0.016560  -0.023754
   21  C  2  S   -0.016231  -0.034455   0.081589   1.045704   0.040153
   22  C  2  X    0.033060  -0.010500   0.053374   0.293529   0.063101
   23  C  2  Y   -0.014593   0.011499  -0.063698   0.233195   0.011249
   24  C  2  Z   -0.030524  -0.056160   0.029595  -0.116230  -0.160157
   25  C  2 XX   -0.001893  -0.002686  -0.002159  -0.006401   0.006245
   26  C  2 YY   -0.000020  -0.004230  -0.002416   0.002483   0.000806
   27  C  2 ZZ    0.002272   0.007580   0.003042  -0.012401  -0.006132
   28  C  2 XY   -0.002449   0.000145  -0.002086  -0.010060   0.005362
   29  C  2 XZ   -0.012173  -0.016338  -0.021839   0.005013   0.014138
   30  C  2 YZ    0.000846  -0.000949   0.006307  -0.005907  -0.006328
   31  C  3  S   -0.004084   0.003416   0.000658  -0.025429   0.023940
   32  C  3  S    0.005712  -0.009242  -0.003619   0.069862  -0.043482
   33  C  3  X   -0.006582   0.004374   0.015141   0.008268   0.019784
   34  C  3  Y    0.006126   0.005298  -0.000656   0.085037  -0.061895
   35  C  3  Z    0.200453   0.320377   0.346091  -0.062461  -0.212765
   36  C  3  S    0.048490  -0.012192   0.002565   0.241789  -0.288195
   37  C  3  X    0.005025   0.001326   0.049876  -0.051436   0.000008
   38  C  3  Y   -0.016935   0.002294  -0.001075   0.210261  -0.211922
   39  C  3  Z    0.128286   0.252498   0.434018  -0.113749  -0.331969
   40  C  3 XX   -0.002399  -0.001012  -0.000065   0.012188  -0.005242
   41  C  3 YY    0.002439   0.000187   0.000198  -0.007776   0.011340
   42  C  3 ZZ   -0.000393   0.001132   0.000158  -0.003401  -0.000400
   43  C  3 XY   -0.000407   0.000977  -0.002001   0.001989   0.002245
   44  C  3 XZ   -0.012597  -0.012879   0.009221  -0.008456  -0.018128
   45  C  3 YZ   -0.006855  -0.002995   0.007395  -0.003738  -0.008990
   46  C  4  S   -0.000345  -0.001349   0.002205  -0.029890   0.019787
   47  C  4  S    0.002610   0.003364  -0.006607   0.064684  -0.031636
   48  C  4  X    0.020574   0.002094  -0.010424  -0.056284   0.090029
   49  C  4  Y   -0.035190  -0.014812   0.006418   0.029987  -0.055422
   50  C  4  Z    0.318857   0.243255  -0.241141   0.127931   0.317260
   51  C  4  S   -0.017694   0.001591  -0.001070   0.329929  -0.330300
   52  C  4  X   -0.006352  -0.000266   0.015210  -0.147880   0.179826
   53  C  4  Y   -0.011002  -0.005611   0.039286   0.065351  -0.104227
   54  C  4  Z    0.203706   0.194959  -0.299003   0.214763   0.511135
   55  C  4 XX   -0.001373   0.000030   0.000161  -0.006703   0.004300
   56  C  4 YY    0.001868  -0.000686  -0.001384   0.004005  -0.004372
   57  C  4 ZZ   -0.001039   0.000700   0.001299   0.000320   0.002787
   58  C  4 XY    0.003184  -0.001188  -0.002088   0.008394  -0.012917
   59  C  4 XZ    0.007388   0.010262   0.018175  -0.003529  -0.011258
   60  C  4 YZ   -0.006606   0.016216   0.019963   0.005399   0.010767
   61  C  5  S   -0.001848  -0.000905  -0.002907  -0.027998   0.024546
   62  C  5  S    0.002566   0.001729   0.010109   0.059743  -0.041069
   63  C  5  X   -0.051285   0.024548   0.033837  -0.046556   0.125588
   64  C  5  Y   -0.004893   0.019883   0.017484  -0.032709   0.054328
   65  C  5  Z    0.319446  -0.240006  -0.234331  -0.128473  -0.306561
   66  C  5  S    0.027738   0.011022   0.001667   0.321023  -0.358813
   67  C  5  X   -0.014778   0.022667   0.014613  -0.120791   0.262194
   68  C  5  Y   -0.001054   0.018479   0.047610  -0.056599   0.118288
   69  C  5  Z    0.204708  -0.190399  -0.294072  -0.224216  -0.488543
   70  C  5 XX   -0.002275   0.002247  -0.003758  -0.007363   0.002185
   71  C  5 YY    0.000468  -0.001532   0.002742   0.004683  -0.002647
   72  C  5 ZZ    0.001723  -0.000503   0.001216   0.000532   0.004322
   73  C  5 XY    0.001296   0.000180  -0.001274  -0.009014   0.011301
   74  C  5 XZ    0.007222  -0.010267   0.017823   0.001615   0.011737
   75  C  5 YZ    0.006816   0.016346  -0.020136   0.004982   0.011920
   76  C  6  S    0.005563   0.002792  -0.000285  -0.026479   0.023581
   77  C  6  S   -0.009373  -0.006469   0.004661   0.071931  -0.038186
   78  C  6  X   -0.021325   0.038313  -0.052445   0.002076  -0.009652
   79  C  6  Y   -0.038815   0.014340  -0.019757  -0.091620   0.052314
   80  C  6  Z    0.200257  -0.317472   0.337405   0.052695   0.217859
   81  C  6  S   -0.050783  -0.017244  -0.012047   0.246792  -0.322267
   82  C  6  X   -0.020627   0.024851  -0.098154  -0.068138  -0.057472
   83  C  6  Y   -0.035385   0.004598  -0.026605  -0.227414   0.172852
   84  C  6  Z    0.127079  -0.250740   0.421325   0.085454   0.338694
   85  C  6 XX    0.001926  -0.002982  -0.001214   0.010850  -0.007543
   86  C  6 YY    0.001139   0.000183   0.000441  -0.008119   0.011445
   87  C  6 ZZ   -0.001522   0.003291   0.000866  -0.001946   0.001966
   88  C  6 XY   -0.000580  -0.000776  -0.001502  -0.001220  -0.001635
   89  C  6 XZ   -0.012675   0.012367   0.009023   0.010239   0.017790
   90  C  6 YZ    0.006927  -0.003107  -0.007443  -0.004200  -0.008394
   91  H  7  S   -0.062291   0.095471  -0.065373  -0.037635  -0.063654
   92  H  7  S   -0.060738   0.139395  -0.154723  -0.721765  -0.325502
   93  H  8  S    0.043905  -0.059925   0.051293  -0.027407   0.046774
   94  H  8  S    0.066881  -0.064714   0.147526  -0.738282   0.193943
   95  H  9  S    0.059184   0.095146   0.065328  -0.040512  -0.057769
   96  H  9  S    0.059690   0.140454   0.140824  -0.742408  -0.272740
   97  H 10  S   -0.060022  -0.062783  -0.058060  -0.023803   0.046049
   98  H 10  S   -0.083820  -0.067180  -0.173666  -0.708640   0.177127
   99  H 11  S    0.013597   0.003360   0.003034  -0.027382   0.035252
  100  H 11  S    0.017909   0.004983   0.003178  -0.486319   0.457194
  101  H 12  S   -0.022660   0.000694   0.007222  -0.037006   0.039992
  102  H 12  S   -0.029242  -0.001332   0.016679  -0.465073   0.499955
  103  H 13  S    0.007353   0.004231  -0.010062  -0.035888   0.045094
  104  H 13  S    0.011411   0.005598  -0.026267  -0.456819   0.537781
  105  H 14  S    0.014248   0.001336  -0.002735  -0.030240   0.031867
  106  H 14  S    0.014467  -0.000604  -0.004277  -0.506045   0.438677

                     26         27         28         29         30
                    0.1364     0.1396     0.1549     0.1743     0.1757
                     A          A          A          A          A   
    1  C  1  S    0.039657   0.010295  -0.042725   0.045712  -0.116243
    2  C  1  S   -0.029072  -0.001181   0.006724  -0.061432   0.106673
    3  C  1  X   -0.083452  -0.132501   0.056200   0.104814   0.078478
    4  C  1  Y    0.014845   0.121457  -0.059611   0.058528   0.038083
    5  C  1  Z   -0.138789   0.189512   0.146233  -0.018687  -0.034635
    6  C  1  S   -0.829769  -0.333853   1.058730  -0.709127   2.158552
    7  C  1  X   -0.114311  -0.435228   0.040360   0.302692   0.232366
    8  C  1  Y    0.168523   0.345117   0.129049   0.360280   0.285070
    9  C  1  Z   -0.350736   0.525083   0.327062  -0.063017  -0.139645
   10  C  1 XX   -0.003246   0.004778  -0.008340   0.013723   0.000289
   11  C  1 YY    0.005699   0.000550   0.005578  -0.005194  -0.021064
   12  C  1 ZZ    0.007582  -0.002561  -0.009852  -0.002344  -0.003072
   13  C  1 XY    0.000441  -0.001778   0.000777   0.020236  -0.002841
   14  C  1 XZ   -0.005521  -0.009261  -0.001699  -0.000079   0.000258
   15  C  1 YZ   -0.006384   0.013428   0.006857   0.002089   0.000861
   16  C  2  S    0.037551   0.022150   0.041574   0.051735   0.112324
   17  C  2  S   -0.023533  -0.018577  -0.006744  -0.067369  -0.101477
   18  C  2  X   -0.144518  -0.011853  -0.070481   0.097810  -0.079490
   19  C  2  Y   -0.114419   0.067160  -0.054921  -0.055503   0.040371
   20  C  2  Z   -0.069682   0.232698   0.144560   0.039958  -0.052883
   21  C  2  S   -0.859460  -0.412516  -1.027467  -0.822525  -2.094127
   22  C  2  X   -0.367462   0.102202  -0.076017   0.285347  -0.229043
   23  C  2  Y   -0.396111   0.094224   0.146150  -0.354917   0.309578
   24  C  2  Z   -0.208923   0.642541   0.340127   0.120708  -0.192097
   25  C  2 XX   -0.000297  -0.004757   0.008986   0.013111  -0.001406
   26  C  2 YY    0.003482   0.003493  -0.005890  -0.004354   0.021542
   27  C  2 ZZ    0.006513   0.006644   0.009154  -0.001530   0.003115
   28  C  2 XY    0.000537   0.000744   0.001776  -0.020277  -0.001491
   29  C  2 XZ    0.010117  -0.003852  -0.002821   0.002435  -0.000386
   30  C  2 YZ    0.006320  -0.013563  -0.006357  -0.001093  -0.001276
   31  C  3  S   -0.004615  -0.019121   0.036483  -0.094203  -0.011183
   32  C  3  S   -0.012800   0.004024  -0.066033   0.125549  -0.012743
   33  C  3  X   -0.013286  -0.017165   0.003338   0.092523   0.051010
   34  C  3  Y    0.020010   0.128891  -0.209742   0.088825   0.040732
   35  C  3  Z   -0.088366  -0.094819  -0.013349  -0.023925   0.037330
   36  C  3  S    0.074953   0.506697  -0.643097   1.629217   0.326109
   37  C  3  X    0.184903   0.055348   0.095605   0.162609   0.404907
   38  C  3  Y    0.035568   0.262971  -0.674524   0.372675   0.018907
   39  C  3  Z   -0.106280  -0.274738  -0.110739  -0.067094   0.078631
   40  C  3 XX   -0.003914   0.004428  -0.007058  -0.012892  -0.001767
   41  C  3 YY   -0.006842  -0.009483   0.005693   0.000083  -0.006743
   42  C  3 ZZ    0.002631  -0.000108   0.004663  -0.002384   0.002324
   43  C  3 XY   -0.006579  -0.002490   0.000133   0.006501   0.013546
   44  C  3 XZ   -0.009060   0.001582   0.003859  -0.001013  -0.001324
   45  C  3 YZ    0.000935  -0.014025  -0.005576  -0.001975   0.002118
   46  C  4  S   -0.027515  -0.023512   0.011170   0.038932  -0.055697
   47  C  4  S    0.023686   0.019869  -0.003982  -0.059897   0.076370
   48  C  4  X   -0.132960  -0.109074   0.088446   0.048727  -0.077497
   49  C  4  Y    0.037632   0.066746  -0.080981  -0.076994   0.006313
   50  C  4  Z    0.145859   0.072188   0.001996   0.033504  -0.008943
   51  C  4  S    0.595446   0.499942  -0.457923  -0.716365   0.990323
   52  C  4  X   -0.238949  -0.289151   0.230398   0.092007  -0.348153
   53  C  4  Y    0.225809   0.104287   0.067626  -0.405088   0.011644
   54  C  4  Z    0.255701   0.170251   0.025351   0.054626  -0.056871
   55  C  4 XX   -0.003601  -0.008160   0.007192   0.006066   0.000213
   56  C  4 YY   -0.003126   0.003515  -0.011013  -0.007949  -0.008003
   57  C  4 ZZ   -0.000441  -0.001276   0.002336   0.003890  -0.001969
   58  C  4 XY    0.009861   0.004632   0.000879   0.004396  -0.001901
   59  C  4 XZ   -0.006585  -0.000928   0.000257  -0.000670   0.002304
   60  C  4 YZ    0.007883  -0.002876  -0.003136   0.000976   0.001259
   61  C  5  S   -0.033037  -0.007011  -0.009189   0.045416   0.052686
   62  C  5  S    0.025187   0.006079   0.003040  -0.069775  -0.069346
   63  C  5  X   -0.149435  -0.032665  -0.084103   0.065540   0.076037
   64  C  5  Y   -0.078555   0.002649  -0.078742   0.078296   0.001920
   65  C  5  Z   -0.175845  -0.061809   0.005465  -0.025671   0.014457
   66  C  5  S    0.733615   0.187928   0.418630  -0.815293  -0.940894
   67  C  5  X   -0.317935   0.003175  -0.226867   0.154245   0.343541
   68  C  5  Y   -0.215080  -0.132094   0.078548   0.409603  -0.015052
   69  C  5  Z   -0.344029  -0.080553   0.027971  -0.031702   0.012908
   70  C  5 XX   -0.010027   0.002081  -0.006581   0.005869  -0.000704
   71  C  5 YY    0.002259  -0.004260   0.011208  -0.006798   0.009019
   72  C  5 ZZ   -0.000816   0.001115  -0.002176   0.004041   0.001793
   73  C  5 XY   -0.010617  -0.005444   0.000816  -0.004708  -0.001509
   74  C  5 XZ    0.004213   0.004368  -0.001030   0.001021   0.001705
   75  C  5 YZ    0.001877   0.006905   0.002781  -0.000317  -0.001853
   76  C  6  S   -0.018415   0.009596  -0.036949  -0.093331   0.017559
   77  C  6  S   -0.002260  -0.007858   0.068500   0.127802   0.004302
   78  C  6  X   -0.038050  -0.002035   0.002323   0.086091  -0.061864
   79  C  6  Y   -0.124953   0.065775  -0.205486  -0.083351   0.044229
   80  C  6  Z    0.126136   0.005270  -0.031792   0.034614   0.028569
   81  C  6  S    0.428650  -0.310314   0.639643   1.577161  -0.434637
   82  C  6  X    0.117805   0.121685  -0.080846   0.128993  -0.421291
   83  C  6  Y   -0.260424   0.132147  -0.660236  -0.369650   0.039497
   84  C  6  Z    0.281585  -0.081553  -0.160943   0.072757   0.014672
   85  C  6 XX    0.000943  -0.005841   0.006278  -0.012720   0.002950
   86  C  6 YY   -0.011905   0.000344  -0.005640   0.000545   0.006936
   87  C  6 ZZ    0.001655   0.003639  -0.003646  -0.002537  -0.002726
   88  C  6 XY    0.007357   0.002416  -0.000642  -0.005571   0.013745
   89  C  6 XZ    0.005425   0.006709   0.004368  -0.000326  -0.000953
   90  C  6 YZ   -0.009906   0.010244   0.005236  -0.002060   0.000571
   91  H  7  S    0.008067  -0.053504  -0.039856  -0.013493  -0.004435
   92  H  7  S    0.769701  -0.518408  -0.874570   0.264187  -0.623571
   93  H  8  S    0.007079   0.071179   0.010012  -0.025346  -0.007608
   94  H  8  S    0.217502   1.159271  -0.122462   0.049514  -0.923014
   95  H  9  S   -0.033178   0.042205   0.042530  -0.010282   0.005337
   96  H  9  S    0.169681   0.932217   0.891930   0.328066   0.589988
   97  H 10  S    0.062149  -0.040799  -0.013489  -0.026535   0.009451
   98  H 10  S    1.039872  -0.600847   0.062443   0.073316   0.916356
   99  H 11  S   -0.011698  -0.035741   0.028140  -0.027993  -0.043042
  100  H 11  S   -0.082935  -0.611704   1.137322  -1.109005  -0.239849
  101  H 12  S   -0.029295  -0.029567   0.015680   0.023136  -0.009392
  102  H 12  S   -0.705483  -0.648376   0.478990   0.659024  -0.739065
  103  H 13  S   -0.041610  -0.003510  -0.015126   0.025779   0.008005
  104  H 13  S   -0.916887  -0.173398  -0.440840   0.756754   0.691911
  105  H 14  S   -0.040012   0.013658  -0.028104  -0.027015   0.044509
  106  H 14  S   -0.555139   0.319693  -1.121867  -1.075512   0.313505

                     31         32         33         34         35
                    0.2032     0.2276     0.2421     0.2649     0.2790
                     A          A          A          A          A   
    1  C  1  S   -0.035118   0.013806  -0.054781  -0.047420  -0.015185
    2  C  1  S    0.091410  -0.010797   0.058765   0.028847   0.033998
    3  C  1  X    0.021181  -0.064157  -0.116472  -0.146346  -0.232434
    4  C  1  Y   -0.056346   0.066899   0.291878  -0.034409  -0.185973
    5  C  1  Z    0.021289   0.314734  -0.114589   0.036126  -0.005517
    6  C  1  S    0.117925  -0.265641   0.964970   1.141137   0.072650
    7  C  1  X    0.414440  -0.024155  -0.529027  -1.015848  -0.933713
    8  C  1  Y   -0.357655   0.369515   1.282946  -0.330535  -0.735666
    9  C  1  Z    0.168489   1.281204  -0.395129   0.011536   0.004360
   10  C  1 XX   -0.006978   0.008870   0.007291  -0.023942  -0.015704
   11  C  1 YY   -0.003198  -0.005366  -0.026975   0.002999   0.009060
   12  C  1 ZZ    0.001430  -0.000658   0.012204   0.012201   0.003996
   13  C  1 XY   -0.003118   0.001093   0.004568  -0.021800   0.005733
   14  C  1 XZ    0.000301   0.007511  -0.009045  -0.007530  -0.006603
   15  C  1 YZ   -0.000416  -0.008734   0.006284   0.000503  -0.007007
   16  C  2  S    0.036192   0.009960   0.056789  -0.047261   0.016823
   17  C  2  S   -0.092642   0.001371  -0.059462   0.027333  -0.035981
   18  C  2  X   -0.021745  -0.028893   0.128805  -0.129577   0.236681
   19  C  2  Y   -0.060863  -0.062961   0.285850   0.027737  -0.182697
   20  C  2  Z   -0.003180  -0.316612  -0.098786  -0.054311   0.015180
   21  C  2  S   -0.131962  -0.257979  -1.017475   1.153168  -0.107308
   22  C  2  X   -0.415393   0.167146   0.582468  -0.964465   0.980645
   23  C  2  Y   -0.382217  -0.318964   1.259426   0.301083  -0.746770
   24  C  2  Z    0.035771  -1.269202  -0.336843  -0.138801   0.093272
   25  C  2 XX    0.007700   0.009693  -0.004838  -0.024789   0.018628
   26  C  2 YY    0.002571  -0.005951   0.027738   0.002611  -0.010497
   27  C  2 ZZ   -0.001383  -0.001438  -0.014798   0.013294  -0.005415
   28  C  2 XY   -0.003552   0.000244   0.004628   0.021443   0.004525
   29  C  2 XZ    0.001720  -0.005279  -0.007031   0.000419  -0.004846
   30  C  2 YZ   -0.000489  -0.008826  -0.006187   0.003544   0.007836
   31  C  3  S   -0.055421  -0.021365   0.002474   0.035421  -0.057327
   32  C  3  S    0.106578   0.036553   0.025319  -0.045686   0.073482
   33  C  3  X   -0.016920   0.023248   0.018198  -0.208705   0.123040
[...]
   35  C  3  Z    0.003417
   36  C  3  S    2.483709
   37  C  3  X    0.096063
   38  C  3  Y   -0.862234
   39  C  3  Z   -0.004800
   40  C  3 XX   -0.987998
   41  C  3 YY   -0.686963
   42  C  3 ZZ   -0.617802
   43  C  3 XY   -0.025417
   44  C  3 XZ    0.025297
   45  C  3 YZ    0.005673
   46  C  4  S    0.203003
   47  C  4  S   -1.012240
   48  C  4  X    0.161886
   49  C  4  Y   -0.033631
   50  C  4  Z   -0.000910
   51  C  4  S   -2.636671
   52  C  4  X   -0.872534
   53  C  4  Y    0.528934
   54  C  4  Z    0.022029
   55  C  4 XX    0.843582
   56  C  4 YY    1.017994
   57  C  4 ZZ    0.698536
   58  C  4 XY    0.163202
   59  C  4 XZ    0.009000
   60  C  4 YZ    0.020807
   61  C  5  S   -0.200060
   62  C  5  S    0.999407
   63  C  5  X   -0.161023
   64  C  5  Y   -0.029912
   65  C  5  Z   -0.013496
   66  C  5  S    2.625454
   67  C  5  X    0.843676
   68  C  5  Y    0.522547
   69  C  5  Z    0.104211
   70  C  5 XX   -0.835116
   71  C  5 YY   -1.006692
   72  C  5 ZZ   -0.686103
   73  C  5 XY    0.167855
   74  C  5 XZ   -0.003290
   75  C  5 YZ   -0.015646
   76  C  6  S    0.176482
   77  C  6  S   -0.902084
   78  C  6  X   -0.087185
   79  C  6  Y    0.131032
   80  C  6  Z    0.001949
   81  C  6  S   -2.454205
   82  C  6  X   -0.081623
   83  C  6  Y   -0.841444
   84  C  6  Z   -0.056113
   85  C  6 XX    0.967292
   86  C  6 YY    0.673951
   87  C  6 ZZ    0.613555
   88  C  6 XY   -0.022856
   89  C  6 XZ    0.068444
   90  C  6 YZ   -0.006867
   91  H  7  S   -0.054559
   92  H  7  S   -0.210055
   93  H  8  S   -0.030867
   94  H  8  S   -0.285764
   95  H  9  S    0.052798
   96  H  9  S    0.204091
   97  H 10  S    0.037037
   98  H 10  S    0.278011
   99  H 11  S    0.052744
  100  H 11  S   -0.003873
  101  H 12  S   -0.074798
  102  H 12  S   -0.039840
  103  H 13  S    0.070690
  104  H 13  S    0.031581
  105  H 14  S   -0.048953
  106  H 14  S    0.007616
 ...... END OF RHF CALCULATION ......
 STEP CPU TIME =    27.66 TOTAL CPU TIME =         27.7 (      0.5 MIN)
 TOTAL WALL CLOCK TIME=         27.8 SECONDS, CPU UTILIZATION IS    99.60%

     ---------------------------------------------------------------------
     PROPERTIES FOR THE B3LYP    DFT FUNCTIONAL (RHF  TYPE) DENSITY MATRIX
     ---------------------------------------------------------------------

          -----------------
          ENERGY COMPONENTS
          -----------------

         WAVEFUNCTION NORMALIZATION =       1.0000000000

                ONE ELECTRON ENERGY =    -746.5205199040
                TWO ELECTRON ENERGY =     294.3443862764
           NUCLEAR REPULSION ENERGY =     218.9211432627
                                      ------------------
                       TOTAL ENERGY =    -233.2549903650

 ELECTRON-ELECTRON POTENTIAL ENERGY =     294.3443862764
  NUCLEUS-ELECTRON POTENTIAL ENERGY =    -977.7430857641
   NUCLEUS-NUCLEUS POTENTIAL ENERGY =     218.9211432627
                                      ------------------
             TOTAL POTENTIAL ENERGY =    -464.4775562251
               TOTAL KINETIC ENERGY =     231.2225658601
                 VIRIAL RATIO (V/T) =       2.0087899055

          ---------------------------------------
          MULLIKEN AND LOWDIN POPULATION ANALYSES
          ---------------------------------------

     ATOMIC MULLIKEN POPULATION IN EACH MOLECULAR ORBITAL

                      1          2          3          4          5

                  2.000000   2.000000   2.000000   2.000000   2.000000

    1             0.041394   1.954634  -0.000029   0.002316   0.000012
    2             1.954619   0.041377   0.002373  -0.000027  -0.000023
    3             0.002847   0.000044   1.981489   0.000035   0.013651
    4            -0.000074   0.000027   0.015910  -0.000064   1.666474
    5             0.000043  -0.000094  -0.000087   0.019747   0.315953
    6            -0.000025   0.002868   0.000039   1.977688   0.003623
    7             0.000024   0.000565  -0.000000   0.000016  -0.000000
    8             0.000010   0.000555   0.000000   0.000007  -0.000000
    9             0.000581   0.000003   0.000015  -0.000000   0.000000
   10             0.000563   0.000002   0.000008   0.000000  -0.000000
   11             0.000019   0.000001   0.000247   0.000000   0.000005
   12            -0.000000  -0.000000   0.000037  -0.000001   0.000209
   13             0.000000  -0.000001  -0.000001   0.000038   0.000096
   14             0.000000   0.000019  -0.000000   0.000245   0.000000

                      6          7          8          9         10

                  2.000000   2.000000   2.000000   2.000000   2.000000

    1            -0.000024   0.306809   0.394481   0.227111   0.381463
    2             0.000004   0.305184   0.468946   0.156579   0.375264
    3             0.002166   0.306981   0.082974   0.518230   0.192135
    4             0.317489   0.330095   0.320455   0.243070   0.232570
    5             1.664241   0.332485   0.384388   0.177692   0.229162
    6             0.016028   0.311820   0.102959   0.494411   0.195110
    7             0.000000   0.014844   0.038930   0.018250   0.075809
    8            -0.000000   0.014940   0.041472   0.019963   0.076855
    9             0.000000   0.014705   0.047656   0.009932   0.074247
   10            -0.000000   0.014706   0.049866   0.010841   0.073170
   11             0.000002   0.011818  -0.000021   0.052369   0.001062
   12            -0.000011   0.012128   0.030467   0.014748   0.047615
   13             0.000100   0.011794   0.036070   0.007569   0.043959
   14             0.000005   0.011690   0.001356   0.049237   0.001579

                     11         12         13         14         15

                  2.000000   2.000000   2.000000   2.000000   2.000000

    1             0.159895   0.149521   0.258371   0.441310   0.314962
    2             0.166070   0.150986   0.244113   0.452253   0.315406
    3             0.329515   0.252572   0.203203   0.093604   0.339306
    4             0.329697   0.301640   0.161648   0.087826   0.326060
    5             0.329781   0.292746   0.174937   0.081532   0.327062
    6             0.322173   0.258859   0.199882   0.090740   0.342046
    7             0.012545   0.009627   0.157589   0.079201   0.000039
    8             0.015102   0.040595   0.001007   0.207791   0.012637
    9             0.015103   0.015076   0.149494   0.077235   0.000359
   10             0.017594   0.036415   0.000494   0.217173   0.010159
   11             0.113251   0.110137   0.118444   0.029410   0.004270
   12             0.039563   0.136147   0.105139   0.059362   0.000656
   13             0.041131   0.129979   0.113747   0.052883   0.000725
   14             0.108580   0.115702   0.111933   0.029681   0.006314

                     16         17         18         19         20

                  2.000000   2.000000   2.000000   2.000000   2.000000

    1             0.072669   0.424241   0.468444   0.293458   0.353357
    2             0.081278   0.435329   0.461603   0.305839   0.317701
    3             0.394503   0.017871   0.115179   0.291003   0.162794
    4             0.182324   0.252995   0.022441   0.142332   0.199431
    5             0.183525   0.254644   0.020553   0.151103   0.189480
    6             0.397363   0.016968   0.115083   0.270606   0.175769
    7             0.008880   0.012799   0.307967   0.023598   0.002298
    8             0.006779   0.139707   0.085399   0.104831   0.053543
    9             0.017183   0.014936   0.304701   0.024943   0.000098
   10             0.003415   0.142596   0.090109   0.080075   0.058425
   11             0.224596   0.004435   0.006590   0.020260   0.178975
   12             0.098205   0.139087   0.000140   0.153643   0.039714
   13             0.099395   0.139651   0.000035   0.132494   0.070739
   14             0.229885   0.004741   0.001755   0.005814   0.197676

                     21         22

                  2.000000   2.000000

    1             0.026885   0.033483
    2             0.035384   0.034592
    3             0.255276   0.562321
    4             0.654322   0.328175
    5             0.662148   0.321757
    6             0.265850   0.559770
    7             0.024908   0.060381
    8             0.016380   0.018486
    9             0.022705   0.060578
   10             0.029193   0.020239
   11             0.001268   0.000106
   12             0.003748  -0.000002
   13             0.000402   0.000109
   14             0.001532   0.000004

               ----- POPULATIONS IN EACH AO -----
                             MULLIKEN      LOWDIN
              1  C  1  S      1.99210     1.97749
              2  C  1  S      0.68091     0.35570
              3  C  1  X      0.71053     0.63389
              4  C  1  Y      0.69344     0.62563
              5  C  1  Z      0.71945     0.64004
              6  C  1  S      0.58569     0.30720
              7  C  1  X      0.30275     0.40419
              8  C  1  Y      0.25881     0.37945
              9  C  1  Z      0.33360     0.46229
             10  C  1 XX      0.00016     0.14777
             11  C  1 YY     -0.00237     0.14740
             12  C  1 ZZ      0.00696     0.15144
             13  C  1 XY      0.00954     0.01864
             14  C  1 XZ      0.00759     0.01464
             15  C  1 YZ      0.00561     0.01020
             16  C  2  S      1.99210     1.97748
             17  C  2  S      0.68083     0.35576
             18  C  2  X      0.70950     0.63341
             19  C  2  Y      0.69316     0.62532
             20  C  2  Z      0.71950     0.63940
             21  C  2  S      0.58644     0.30741
             22  C  2  X      0.30452     0.40227
             23  C  2  Y      0.25952     0.37958
             24  C  2  Z      0.33186     0.46429
             25  C  2 XX     -0.00105     0.14614
             26  C  2 YY     -0.00240     0.14733
             27  C  2 ZZ      0.00598     0.14948
             28  C  2 XY      0.00903     0.01772
             29  C  2 XZ      0.00969     0.01901
             30  C  2 YZ      0.00617     0.01121
             31  C  3  S      1.99186     1.97803
             32  C  3  S      0.70809     0.36400
             33  C  3  X      0.74873     0.66122
             34  C  3  Y      0.74367     0.65018
             35  C  3  Z      0.56206     0.51923
             36  C  3  S      0.52735     0.30457
             37  C  3  X      0.17449     0.32901
             38  C  3  Y      0.22767     0.39904
             39  C  3  Z      0.42491     0.45917
             40  C  3 XX      0.00061     0.17469
             41  C  3 YY      0.01461     0.17713
             42  C  3 ZZ     -0.02441     0.10475
             43  C  3 XY      0.00963     0.01945
             44  C  3 XZ      0.00689     0.01408
             45  C  3 YZ      0.00155     0.00270
             46  C  4  S      1.99184     1.97795
             47  C  4  S      0.70930     0.36086
             48  C  4  X      0.76311     0.66469
             49  C  4  Y      0.74525     0.65553
             50  C  4  Z      0.57504     0.52475
             51  C  4  S      0.49275     0.29913
             52  C  4  X      0.19834     0.37783
             53  C  4  Y      0.19239     0.34217
             54  C  4  Z      0.43715     0.47915
             55  C  4 XX      0.01062     0.17672
             56  C  4 YY      0.00192     0.16931
             57  C  4 ZZ     -0.02424     0.10272
             58  C  4 XY      0.01256     0.02766
             59  C  4 XZ      0.00328     0.00634
             60  C  4 YZ      0.00555     0.01226
             61  C  5  S      1.99184     1.97790
             62  C  5  S      0.70902     0.36055
             63  C  5  X      0.76050     0.66251
             64  C  5  Y      0.74486     0.65495
             65  C  5  Z      0.57918     0.52794
             66  C  5  S      0.49080     0.29881
             67  C  5  X      0.20137     0.37843
             68  C  5  Y      0.19239     0.34243
             69  C  5  Z      0.43302     0.47647
             70  C  5 XX      0.00998     0.17566
             71  C  5 YY      0.00189     0.16925
             72  C  5 ZZ     -0.02381     0.10343
             73  C  5 XY      0.01240     0.02751
             74  C  5 XZ      0.00366     0.00712
             75  C  5 YZ      0.00569     0.01253
             76  C  6  S      1.99186     1.97798
             77  C  6  S      0.70747     0.36360
             78  C  6  X      0.74658     0.65930
             79  C  6  Y      0.74121     0.64794
             80  C  6  Z      0.56816     0.52439
             81  C  6  S      0.52758     0.30449
             82  C  6  X      0.17955     0.33055
             83  C  6  Y      0.22979     0.39976
             84  C  6  Z      0.41842     0.45650
             85  C  6 XX      0.00031     0.17387
             86  C  6 YY      0.01434     0.17651
             87  C  6 ZZ     -0.02383     0.10606
             88  C  6 XY      0.00958     0.01937
             89  C  6 XZ      0.00682     0.01393
             90  C  6 YZ      0.00178     0.00313
             91  H  7  S      0.53055     0.49756
             92  H  7  S      0.31772     0.35129
             93  H  8  S      0.53169     0.49480
             94  H  8  S      0.32437     0.35100
             95  H  9  S      0.53081     0.49695
             96  H  9  S      0.31874     0.35189
             97  H 10  S      0.52985     0.49337
             98  H 10  S      0.32520     0.35186
             99  H 11  S      0.53495     0.49099
            100  H 11  S      0.34229     0.35767
            101  H 12  S      0.53587     0.48906
            102  H 12  S      0.34472     0.35751
            103  H 13  S      0.53408     0.48796
            104  H 13  S      0.34684     0.35967
            105  H 14  S      0.53346     0.48996
            106  H 14  S      0.34429     0.35946

          ----- MULLIKEN ATOMIC OVERLAP POPULATIONS -----
          (OFF-DIAGONAL ELEMENTS NEED TO BE MULTIPLIED BY 2)

             1           2           3           4           5

    1    5.0391424
    2    0.3555433   5.0426113
    3   -0.0273265   0.3723996   4.9159952
    4   -0.0313966  -0.0276330   0.6731444   4.8189363
    5   -0.0278834  -0.0325132  -0.0307974   0.4323014   4.8170379
    6    0.3729974  -0.0264762  -0.0361619  -0.0318155   0.6737363
    7    0.3656265  -0.0348348   0.0009205   0.0028606  -0.0056748
    8    0.3676445  -0.0319925   0.0029909   0.0009634   0.0016081
    9   -0.0340932   0.3624847  -0.0382085  -0.0045461   0.0027253
   10   -0.0324738   0.3684324  -0.0315887   0.0009664   0.0009673
   11    0.0042995  -0.0542048   0.3610020  -0.0362809   0.0059194
   12   -0.0001514   0.0069155  -0.0514844   0.3624668  -0.0509008
   13    0.0068747  -0.0001326   0.0066603  -0.0510099   0.3621995
   14   -0.0540403   0.0042483   0.0001519   0.0058846  -0.0359252

             6           7           8           9          10

    6    4.9174634
    7   -0.0396866   0.6020594
    8   -0.0307691  -0.0393740   0.5967800
    9    0.0008165   0.0063918  -0.0110221   0.6032800
   10    0.0030373  -0.0113734   0.0026037  -0.0393868   0.5969037
   11    0.0001608  -0.0001001  -0.0001417   0.0014023  -0.0027514
   12    0.0068272   0.0000136   0.0000107  -0.0002072  -0.0001646
   13   -0.0512815  -0.0001976  -0.0001672   0.0000183   0.0000107
   14    0.3607810   0.0016389  -0.0030756  -0.0001064  -0.0001403

            11          12          13          14

   11    0.6069398
   12   -0.0088308   0.6229628
   13   -0.0001801  -0.0066866   0.6236586
   14    0.0000103  -0.0001782  -0.0088525   0.6073518

          TOTAL MULLIKEN AND LOWDIN ATOMIC POPULATIONS
       ATOM         MULL.POP.    CHARGE          LOW.POP.     CHARGE
    1 C             6.304763   -0.304763         6.275978   -0.275978
    2 C             6.304848   -0.304848         6.275812   -0.275812
    3 C             6.117697   -0.117697         6.157265   -0.157265
    4 C             6.114842   -0.114842         6.177071   -0.177071
    5 C             6.112800   -0.112800         6.175500   -0.175500
    6 C             6.119629   -0.119629         6.157379   -0.157379
    7 H             0.848270    0.151730         0.848856    0.151144
    8 H             0.856059    0.143941         0.845796    0.154204
    9 H             0.849549    0.150451         0.848835    0.151165
   10 H             0.855043    0.144957         0.845232    0.154768
   11 H             0.877244    0.122756         0.848665    0.151335
   12 H             0.880593    0.119407         0.846566    0.153434
   13 H             0.880914    0.119086         0.847622    0.152378
   14 H             0.877748    0.122252         0.849423    0.150577

          -------------------------------
          BOND ORDER AND VALENCE ANALYSIS     BOND ORDER THRESHOLD=0.050
          -------------------------------

                   BOND                       BOND                       BOND
  ATOM PAIR DIST  ORDER      ATOM PAIR DIST  ORDER      ATOM PAIR DIST  ORDER
    1   2  1.540  0.999        1   6  1.503  1.016        1   7  1.093  0.928
    1   8  1.092  0.937        2   3  1.501  1.016        2   9  1.093  0.928
    2  10  1.097  0.936        3   4  1.343  1.879        3   6  2.841  0.109
    3  11  1.082  0.930        4   5  1.441  1.127        4  12  1.083  0.928
    5   6  1.337  1.881        5  13  1.088  0.928        6  14  1.086  0.930

                       TOTAL       BONDED        FREE
      ATOM            VALENCE     VALENCE     VALENCE
    1 C                 3.876       3.876       0.000
    2 C                 3.874       3.874       0.000
    3 C                 3.914       3.914       0.000
    4 C                 3.970       3.970       0.000
    5 C                 3.970       3.970       0.000
    6 C                 3.915       3.915       0.000
    7 H                 0.921       0.921      -0.000
    8 H                 0.928       0.928      -0.000
    9 H                 0.921       0.921      -0.000
   10 H                 0.928       0.928      -0.000
   11 H                 0.937       0.937       0.000
   12 H                 0.934       0.934      -0.000
   13 H                 0.935       0.935      -0.000
   14 H                 0.938       0.938       0.000

          ---------------------
          ELECTROSTATIC MOMENTS
          ---------------------

 POINT   1           X           Y           Z (BOHR)    CHARGE
                -0.000001    0.000004    0.000002        0.00 (A.U.)
         DX          DY          DZ         /D/  (DEBYE)
     0.487704    0.015808    0.019306    0.488342
 ...... END OF PROPERTY EVALUATION ......
 STEP CPU TIME =     0.00 TOTAL CPU TIME =         27.7 (      0.5 MIN)
 TOTAL WALL CLOCK TIME=         27.8 SECONDS, CPU UTILIZATION IS    99.50%
               1070930  WORDS OF DYNAMIC MEMORY USED
 EXECUTION OF GAMESS TERMINATED NORMALLY Wed Dec 21 03:39:20 2022
 DDI: 263640 bytes (0.3 MB / 0 MWords) used by master data server.

 ----------------------------------------
 CPU timing information for all processes
 ========================================
 0: 27.629 + 0.89 = 27.719
 ----------------------------------------
 ddikick.x: exited gracefully.
----- accounting info -----
Files used on the master node chemcompute-node-0.novalocal were:
-rw-r--r--. 1 chemcomp chemcomp     1209 Dec 21 03:38 /scratch/169832/518242.F05
-rw-rw-r--. 1 chemcomp chemcomp 45875200 Dec 21 03:39 /scratch/169832/518242.F10
Wed Dec 21 03:39:23 UTC 2022
0.096u 0.032s 0:31.19 0.3%	0+0k 8+208io 0pf+0w
Finishing Up...
Looking for IR data...
Looking for Raman data...
vibramans not found
Looking for thermodynamics data...
Looking for UV-Vis data...
chemcompute.org
{'UTCtimestamp': '2022-12-21T03:39:25.092082', 'cluster': 'jetstream2', 'clusterJobNumber': '169832', 'status': 'COMPLETE', 'nodeList': 'chemcompute-node-0'}
169832
