chemcompute.org
{'UTCtimestamp': '2022-12-21T02:31:24.824707', 'cluster': 'jetstream2', 'clusterJobNumber': '169822', 'status': 'RUNNING', 'nodeList': 'chemcompute-node-0'}
----- GAMESS execution script 'rungms' -----
This job is running on host chemcompute-node-0.novalocal
under operating system Linux at Wed Dec 21 02:31:28 UTC 2022
SLURM has assigned the following compute nodes to this run:
Available scratch disk space (Kbyte units) at beginning of the job is
Filesystem     1K-blocks     Used Available Use% Mounted on
/dev/sda4       61775852 17106360  44669492  28% /
GAMESS temporary binary files will be written to /scratch/169822
GAMESS supplementary output files will be written to /data/slurm/51/518232
Copying input file 518232.inp to your run's scratch directory...
The generated host list is
chemcompute-node-0.novalocal

 Distributed Data Interface kickoff program.
 Initiating 1 compute processes on 1 nodes to run the following command:
 /data/gamess-2019R1-avx2-ddi/gamess.00.x 518232 

          ******************************************************
          *         GAMESS VERSION = 30 JUN 2019 (R1)          *
          *             FROM IOWA STATE UNIVERSITY             *
          * M.W.SCHMIDT, K.K.BALDRIDGE, J.A.BOATZ, S.T.ELBERT, *
          *   M.S.GORDON, J.H.JENSEN, S.KOSEKI, N.MATSUNAGA,   *
          *          K.A.NGUYEN, S.J.SU, T.L.WINDUS,           *
          *       TOGETHER WITH M.DUPUIS, J.A.MONTGOMERY       *
          *         J.COMPUT.CHEM.  14, 1347-1363(1993)        *
          **************** 64 BIT INTEL VERSION ****************

  SINCE 1993, STUDENTS AND POSTDOCS WORKING AT IOWA STATE UNIVERSITY
  AND ALSO IN THEIR VARIOUS JOBS AFTER LEAVING ISU HAVE MADE IMPORTANT
  CONTRIBUTIONS TO THE CODE:
     IVANA ADAMOVIC, CHRISTINE AIKENS, YURI ALEXEEV, POOJA ARORA,
     ANDREY ASADCHEV, ROB BELL, PRADIPTA BANDYOPADHYAY, JONATHAN BENTZ,
     COLLEEN BERTONI, BRETT BODE, KURT BRORSEN, CALEB CARLIN, GALINA CHABAN,
     WEI CHEN, CHEOL HO CHOI, PAUL DAY, ALBERT DEFUSCO, NUWAN DESILVA,
     TIM DUDLEY, DMITRI FEDOROV, ALEX FINDLATER, GRAHAM FLETCHER, 
     MARK FREITAG, KURT GLAESEMANN, ANASTASIA GUNINA,
     DAN KEMP, GRANT MERRILL, NORIYUKI MINEZAWA, JONATHAN MULLIN,
     TAKESHI NAGATA, SEAN NEDD, HEATHER NETZLOFF, BOSILJKA NJEGIC, RYAN OLSON,
     MIKE PAK, BUU PHAM,
     SPENCER PRUITT, LUKE ROSKOP, JIM SHOEMAKER, LYUDMILA SLIPCHENKO,
     TONY SMITH, SAROM SOK LEANG, JIE SONG, TETSUYA TAKETSUGU, SIMON WEBB,
     PENG XU, SOOHAENG YOO, FEDERICO ZAHARIEV

  ADDITIONAL CODE HAS BEEN PROVIDED BY COLLABORATORS IN OTHER GROUPS:
     IOWA STATE UNIVERSITY:
          JOE IVANIC, AARON WEST, LAIMUTIS BYTAUTAS, KLAUS RUEDENBERG
     UNIVERSITY OF TOKYO: KIMIHIKO HIRAO, TAKAHITO NAKAJIMA,
          TAKAO TSUNEDA, MUNEAKI KAMIYA, SUSUMU YANAGISAWA,
          KIYOSHI YAGI, MAHITO CHIBA, SEIKEN TOKURA, NAOAKI KAWAKAMI
     UNIVERSITY OF AARHUS: FRANK JENSEN
     UNIVERSITY OF IOWA: VISVALDAS KAIRYS, HUI LI
     NATIONAL INST. OF STANDARDS AND TECHNOLOGY: WALT STEVENS, DAVID GARMER
     UNIVERSITY OF PISA: BENEDETTA MENNUCCI, JACOPO TOMASI
     UNIVERSITY OF MEMPHIS: HENRY KURTZ, PRAKASHAN KORAMBATH
     UNIVERSITY OF ALBERTA: TOBY ZENG, MARIUSZ KLOBUKOWSKI
     UNIVERSITY OF NEW ENGLAND: MARK SPACKMAN
     MIE UNIVERSITY: HIROAKI UMEDA
     NAT. INST. OF ADVANCED INDUSTRIAL SCIENCE AND TECHNOLOGY: KAZUO KITAURA
     MICHIGAN STATE UNIVERSITY:
          KAROL KOWALSKI, MARTA WLOCH, JEFFREY GOUR, JESSE LUTZ,
          WEI LI, JUN SHEN, J. EMILIANO DEUSTUA, PIOTR PIECUCH
     UNIVERSITY OF MINNESOTA:
          YINAN SHU
     UNIVERSITY OF SILESIA: MONIKA MUSIAL, STANISLAW KUCHARSKI
     FACULTES UNIVERSITAIRES NOTRE-DAME DE LA PAIX:
          OLIVIER QUINET, BENOIT CHAMPAGNE
     UNIVERSITY OF CALIFORNIA - SANTA BARBARA: BERNARD KIRTMAN
     INSTITUTE FOR MOLECULAR SCIENCE:
          KAZUYA ISHIMURA, MICHIO KATOUDA, AND SHIGERU NAGASE
     UNIVERSITY OF NOTRE DAME: ANNA POMOGAEVA, DAN CHIPMAN
     KYUSHU UNIVERSITY:
          HARUYUKI NAKANO,
          FENG LONG GU, JACEK KORCHOWIEC, MARCIN MAKOWSKI, AND YURIKO AOKI,
          HIROTOSHI MORI AND EISAKU MIYOSHI
     PENNSYLVANIA STATE UNIVERSITY:
          TZVETELIN IORDANOV, CHET SWALINA, JONATHAN SKONE,
          SHARON HAMMES-SCHIFFER
     WASEDA UNIVERSITY:
          MASATO KOBAYASHI, TOMOKO AKAMA, TSUGUKI TOUMA,
          TAKESHI YOSHIKAWA, YASUHIRO IKABATA, JUNJI SEINO,
          YUYA NAKAJIMA, HIROMI NAKAI
     NANJING UNIVERSITY: SHUHUA LI
     UNIVERSITY OF NEBRASKA:
          PEIFENG SU, DEJUN SI, NANDUN THELLAMUREGE, YALI WANG, HUI LI
     UNIVERSITY OF ZURICH: ROBERTO PEVERATI, KIM BALDRIDGE
     N. COPERNICUS UNIVERSITY AND JACKSON STATE UNIVERSITY:
          MARIA BARYSZ
     UNIVERSITY OF COPENHAGEN: Jimmy Kromann, CASPER STEINMANN
     TOKYO INSTITUTE OF TECHNOLOGY: HIROYA NAKATA
     NAGOYA UNIVERSITY: YOSHIO NISHIMOTO, STEPHAN IRLE
     MOSCOW STATE UNIVERSITY: VLADIMIR MIRONOV
     A.N.NESMEYANOV INSTITUTE OF ORGANOELEMENT COMPOUNDS OF RUSSIAN ACADEMY OF SCIENCES:
          IGOR S. GERASIMOV

 EXECUTION OF GAMESS BEGUN Wed Dec 21 02:31:28 2022

            ECHO OF THE FIRST FEW INPUT CARDS -
 INPUT CARD>!                                                                               
 INPUT CARD>!   GAMESS Calculation input file                                               
 INPUT CARD>!                                                                               
 INPUT CARD>!                                                                               
 INPUT CARD> $CONTRL SCFTYP=RHF MAXIT=200 RUNTYP=OPTIMIZE                                   
 INPUT CARD>         COORD=UNIQUE MULT=1                                                    
 INPUT CARD>         ICHARG=0                                                               
 INPUT CARD>         DFTTYP=B3LYP                                                           
 INPUT CARD>         MOLPLT=.FALSE. PLTORB=.FALSE.  $END                                    
 INPUT CARD> $SYSTEM TIMLIM=2879 MWORDS=250  $END                                           
 INPUT CARD>                                                                                
 INPUT CARD> $STATPT OPTTOL=0.0005 NSTEP=999 $END                                           
 INPUT CARD> $STATPT IHREP=0  $END                                                          
 INPUT CARD>                                                                                
 INPUT CARD> $DFT    METHOD=GRID  NLEB=590  $END                                            
 INPUT CARD>                                                                                
 INPUT CARD> $BASIS  GBASIS=N31 NGAUSS=6                                                    
 INPUT CARD>         NDFUNC=1   NPFUNC=0  $END                                              
 INPUT CARD>                                                                                
 INPUT CARD> $SCF    DIRSCF=.T. $END                                                        
 INPUT CARD> $GUESS  GUESS=HUCKEL  $END                                                     
 INPUT CARD>                                                                                
 INPUT CARD> $DATA                                                                          
 INPUT CARD>                                                                                
 INPUT CARD>  C1                                                                            
 INPUT CARD>C     6.0     1.17416    -0.79285     0.14823                                   
 INPUT CARD>C     6.0     1.28722     0.69652    -0.01063                                   
 INPUT CARD>C     6.0    -0.04939     1.46479    -0.02511                                   
 INPUT CARD>C     6.0    -1.28171     0.61085    -0.11204                                   
 INPUT CARD>C     6.0    -1.23847    -0.72497    -0.08194                                   
 INPUT CARD>C     6.0     0.00457    -1.43591     0.08281                                   
 INPUT CARD>H     1.0     2.09154    -1.35536     0.29760                                   
 INPUT CARD>H     1.0     1.81952     0.89048    -0.94470                                   
 INPUT CARD>H     1.0     1.92176     1.09632     0.78425                                   
 INPUT CARD>H     1.0    -0.04718     2.17076    -0.86445                                   
 INPUT CARD>H     1.0    -0.11958     2.07462     0.87717                                   
 INPUT CARD>H     1.0    -2.24021     1.11651    -0.19197                                   
 INPUT CARD>H     1.0    -2.15226    -1.31206    -0.14321                                   
 INPUT CARD>H     1.0    -0.03973    -2.51919     0.16941                                   
 INPUT CARD> $END                                                                           
 INPUT CARD>                                                                                
 INPUT CARD>                                                                                
 INPUT CARD>! Customizations after this line are persisted when using Do More Calculations  
  250000000 WORDS OF MEMORY AVAILABLE

     BASIS OPTIONS
     -------------
     GBASIS=N31          IGAUSS=       6      POLAR=POPN31  
     NDFUNC=       1     NFFUNC=       0     DIFFSP=       F
     NPFUNC=       0      DIFFS=       F     BASNAM=        


     RUN TITLE
     ---------
                                                                                 

 THE POINT GROUP OF THE MOLECULE IS C1      
 THE ORDER OF THE PRINCIPAL AXIS IS     0

 ATOM      ATOMIC                      COORDINATES (BOHR)
           CHARGE         X                   Y                   Z
 C           6.0     2.2188406657       -1.4982692494        0.2801140832
 C           6.0     2.4324930859        1.3162319450       -0.0200877872
 C           6.0    -0.0933335665        2.7680517296       -0.0474510196
 C           6.0    -2.4220806957        1.1543391196       -0.2117248997
 C           6.0    -2.3403689440       -1.3699946493       -0.1548441474
 C           6.0     0.0086360478       -2.7134764430        0.1564882090
 H           1.0     3.9524374924       -2.5612590147        0.5623824539
 H           1.0     3.4383942292        1.6827631975       -1.7852241406
 H           1.0     3.6315998142        2.0717443949        1.4820176059
 H           1.0    -0.0891572721        4.1021415851       -1.6335736301
 H           1.0    -0.2259734336        3.9204633286        1.6576109446
 H           1.0    -4.2333830550        2.1098979626       -0.3627706979
 H           1.0    -4.0671816543       -2.4794338795       -0.2706276587
 H           1.0    -0.0750788135       -4.7605788110        0.3201384796

          INTERNUCLEAR DISTANCES (ANGS.)
          ------------------------------

                1 C          2 C          3 C          4 C          5 C     

   1 C       0.0000000    1.5020792 *  2.5737249 *  2.8406710 *  2.4245349 *
   2 C       1.5020792 *  0.0000000    1.5417441 *  2.5723578 *  2.8991083 *
   3 C       2.5737249 *  1.5417441 *  0.0000000    1.5017932 *  2.4924265 *
   4 C       2.8406710 *  2.5723578 *  1.5017932 *  0.0000000    1.3368585 *
   5 C       2.4245349 *  2.8991083 *  2.4924265 *  1.3368585 *  0.0000000  
   6 C       1.3363183 *  2.4902168 *  2.9032084 *  2.4252235 *  1.4414322 *
   7 H       1.0864230 *  2.2253422 *  3.5554140    3.9258887    3.4103385  
   8 H       2.1082185 *  1.0924516 *  2.1606254 *  3.2232194    3.5644546  
   9 H       2.1289412 *  1.0928473 *  2.1624676 *  3.3617312    3.7489247  
  10 H       3.3615735    2.1640276 *  1.0967635 *  2.1268532 *  3.2274984  
  11 H       3.2291641    2.1601932 *  1.0912967 *  2.1146407 *  3.1637811  
  12 H       3.9267435    3.5569704    2.2245974 *  1.0866476 *  2.0991994 *
  13 H       3.3792878    3.9852219    3.4852411    2.1110215 *  1.0878607 *
  14 H       2.1105040 *  3.4833894    3.9887376    3.3791832    2.1724134 *

                6 C          7 H          8 H          9 H         10 H     

   1 C       1.3363183 *  1.0864230 *  2.1082185 *  2.1289412 *  3.3615735  
   2 C       2.4902168 *  2.2253422 *  1.0924516 *  1.0928473 *  2.1640276 *
   3 C       2.9032084 *  3.5554140    2.1606254 *  2.1624676 *  1.0967635 *
   4 C       2.4252235 *  3.9258887    3.2232194    3.3617312    2.1268532 *
   5 C       1.4414322 *  3.4103385    3.5644546    3.7489247    3.2274984  
   6 C       0.0000000    2.0995397 *  3.1244057    3.2526642    3.7293495  
   7 H       2.0995397 *  0.0000000    2.5809110 *  2.5052721 *  4.2846243  
   8 H       3.1244057    2.5809110 *  0.0000000    1.7441592 *  2.2649781 *
   9 H       3.2526642    2.5052721 *  1.7441592 *  0.0000000    2.7837668 *
  10 H       3.7293495    4.2846243    2.2649781 *  2.7837668 *  0.0000000  
  11 H       3.6014222    4.1218583    2.9123026 *  2.2655626 *  1.7457734 *
  12 H       3.4101890    5.0113749    4.1351058    4.2749746    2.5244906 *
  13 H       2.1721739 *  4.2668521    4.6117898    4.8226668    4.1329873  
  14 H       1.0876385 *  2.4317164 *  4.0402848    4.1590124    4.8025569  

               11 H         12 H         13 H         14 H     

   1 C       3.2291641    3.9267435    3.3792878    2.1105040 *
   2 C       2.1601932 *  3.5569704    3.9852219    3.4833894  
   3 C       1.0912967 *  2.2245974 *  3.4852411    3.9887376  
   4 C       2.1146407 *  1.0866476 *  2.1110215 *  3.3791832  
   5 C       3.1637811    2.0991994 *  1.0878607 *  2.1724134 *
   6 C       3.6014222    3.4101890    2.1721739 *  1.0876385 *
   7 H       4.1218583    5.0113749    4.2668521    2.4317164 *
   8 H       2.9123026 *  4.1351058    4.6117898    4.0402848  
   9 H       2.2655626 *  4.2749746    4.8226668    4.1590124  
  10 H       1.7457734 *  2.5244906 *  4.1329873    4.8025569  
  11 H       0.0000000    2.5608801 *  4.0795300    4.6486977  
  12 H       2.5608801 *  0.0000000    2.4306511 *  4.2650935  
  13 H       4.0795300    2.4306511 *  0.0000000    2.4530954 *
  14 H       4.6486977    4.2650935    2.4530954 *  0.0000000  

  * ... LESS THAN  3.000


     ATOMIC BASIS SET
     ----------------
 THE CONTRACTED PRIMITIVE FUNCTIONS HAVE BEEN UNNORMALIZED
 THE CONTRACTED BASIS FUNCTIONS ARE NOW NORMALIZED TO UNITY

  SHELL TYPE  PRIMITIVE        EXPONENT          CONTRACTION COEFFICIENT(S)

 C         

      1   S       1          3047.5248800    0.001834737132
      1   S       2           457.3695180    0.014037322813
      1   S       3           103.9486850    0.068842622264
      1   S       4            29.2101553    0.232184443216
      1   S       5             9.2866630    0.467941348435
      1   S       6             3.1639270    0.362311985337

      2   L       7             7.8682723   -0.119332419775    0.068999066591
      2   L       8             1.8812885   -0.160854151696    0.316423960957
      2   L       9             0.5442493    1.143456437840    0.744308290898

      3   L      10             0.1687145    1.000000000000    1.000000000000

      4   D      11             0.8000000    1.000000000000

 C         

      5   S      12          3047.5248800    0.001834737132
      5   S      13           457.3695180    0.014037322813
      5   S      14           103.9486850    0.068842622264
      5   S      15            29.2101553    0.232184443216
      5   S      16             9.2866630    0.467941348435
      5   S      17             3.1639270    0.362311985337

      6   L      18             7.8682723   -0.119332419775    0.068999066591
      6   L      19             1.8812885   -0.160854151696    0.316423960957
      6   L      20             0.5442493    1.143456437840    0.744308290898

      7   L      21             0.1687145    1.000000000000    1.000000000000

      8   D      22             0.8000000    1.000000000000

 C         

      9   S      23          3047.5248800    0.001834737132
      9   S      24           457.3695180    0.014037322813
      9   S      25           103.9486850    0.068842622264
      9   S      26            29.2101553    0.232184443216
      9   S      27             9.2866630    0.467941348435
      9   S      28             3.1639270    0.362311985337

     10   L      29             7.8682723   -0.119332419775    0.068999066591
     10   L      30             1.8812885   -0.160854151696    0.316423960957
     10   L      31             0.5442493    1.143456437840    0.744308290898

     11   L      32             0.1687145    1.000000000000    1.000000000000

     12   D      33             0.8000000    1.000000000000

 C         

     13   S      34          3047.5248800    0.001834737132
     13   S      35           457.3695180    0.014037322813
     13   S      36           103.9486850    0.068842622264
     13   S      37            29.2101553    0.232184443216
     13   S      38             9.2866630    0.467941348435
     13   S      39             3.1639270    0.362311985337

     14   L      40             7.8682723   -0.119332419775    0.068999066591
     14   L      41             1.8812885   -0.160854151696    0.316423960957
     14   L      42             0.5442493    1.143456437840    0.744308290898

     15   L      43             0.1687145    1.000000000000    1.000000000000

     16   D      44             0.8000000    1.000000000000

 C         

     17   S      45          3047.5248800    0.001834737132
     17   S      46           457.3695180    0.014037322813
     17   S      47           103.9486850    0.068842622264
     17   S      48            29.2101553    0.232184443216
     17   S      49             9.2866630    0.467941348435
     17   S      50             3.1639270    0.362311985337

     18   L      51             7.8682723   -0.119332419775    0.068999066591
     18   L      52             1.8812885   -0.160854151696    0.316423960957
     18   L      53             0.5442493    1.143456437840    0.744308290898

     19   L      54             0.1687145    1.000000000000    1.000000000000

     20   D      55             0.8000000    1.000000000000

 C         

     21   S      56          3047.5248800    0.001834737132
     21   S      57           457.3695180    0.014037322813
     21   S      58           103.9486850    0.068842622264
     21   S      59            29.2101553    0.232184443216
     21   S      60             9.2866630    0.467941348435
     21   S      61             3.1639270    0.362311985337

     22   L      62             7.8682723   -0.119332419775    0.068999066591
     22   L      63             1.8812885   -0.160854151696    0.316423960957
     22   L      64             0.5442493    1.143456437840    0.744308290898

     23   L      65             0.1687145    1.000000000000    1.000000000000

     24   D      66             0.8000000    1.000000000000

 H         

     25   S      67            18.7311370    0.033494604338
     25   S      68             2.8253944    0.234726953484
     25   S      69             0.6401217    0.813757326146

     26   S      70             0.1612778    1.000000000000

 H         

     27   S      71            18.7311370    0.033494604338
     27   S      72             2.8253944    0.234726953484
     27   S      73             0.6401217    0.813757326146

     28   S      74             0.1612778    1.000000000000

 H         

     29   S      75            18.7311370    0.033494604338
     29   S      76             2.8253944    0.234726953484
     29   S      77             0.6401217    0.813757326146

     30   S      78             0.1612778    1.000000000000

 H         

     31   S      79            18.7311370    0.033494604338
     31   S      80             2.8253944    0.234726953484
     31   S      81             0.6401217    0.813757326146

     32   S      82             0.1612778    1.000000000000

 H         

     33   S      83            18.7311370    0.033494604338
     33   S      84             2.8253944    0.234726953484
     33   S      85             0.6401217    0.813757326146

     34   S      86             0.1612778    1.000000000000

 H         

     35   S      87            18.7311370    0.033494604338
     35   S      88             2.8253944    0.234726953484
     35   S      89             0.6401217    0.813757326146

     36   S      90             0.1612778    1.000000000000

 H         

     37   S      91            18.7311370    0.033494604338
     37   S      92             2.8253944    0.234726953484
     37   S      93             0.6401217    0.813757326146

     38   S      94             0.1612778    1.000000000000

 H         

     39   S      95            18.7311370    0.033494604338
     39   S      96             2.8253944    0.234726953484
     39   S      97             0.6401217    0.813757326146

     40   S      98             0.1612778    1.000000000000

 TOTAL NUMBER OF BASIS SET SHELLS             =   40
 NUMBER OF CARTESIAN GAUSSIAN BASIS FUNCTIONS =  106
 NUMBER OF ELECTRONS                          =   44
 CHARGE OF MOLECULE                           =    0
 SPIN MULTIPLICITY                            =    1
 NUMBER OF OCCUPIED ORBITALS (ALPHA)          =   22
 NUMBER OF OCCUPIED ORBITALS (BETA )          =   22
 TOTAL NUMBER OF ATOMS                        =   14
 THE NUCLEAR REPULSION ENERGY IS      218.6924018589

 SELECTED MURRAY-HANDY-LAMING RADIAL GRID

 LEGACY BECKE'S FUZZY CELL METHOD

 SELECTED ORIGINAL BECKE'S PARTITION FUNCTION

     LEBEDEV GRID-BASED DFT OPTIONS
     ------------------------------
     DFTTYP=B3LYP   
     NRAD  =      96     NLEB  =     590
     NRAD0 =      24     NLEB0 =     110
     SWOFF =    5.00E-03 (PURE SCF -> DFT)
     SWITCH=    3.00E-04 (COARSE -> TIGHT GRID)
     THRESH=    0.00E+00 GTHRE=    1.00E+00

 GRIMME'S EMPIRICAL DISPERSION CORRECTION= F

     $CONTRL OPTIONS
     ---------------
 SCFTYP=RHF          RUNTYP=OPTIMIZE     EXETYP=RUN     
 MPLEVL=       0     CITYP =NONE         CCTYP =NONE         VBTYP =NONE    
 DFTTYP=B3LYP        TDDFT =NONE    
 MULT  =       1     ICHARG=       0     NZVAR =       0     COORD =UNIQUE  
 PP    =NONE         RELWFN=NONE         LOCAL =NONE         NUMGRD=       F
 ISPHER=      -1     NOSYM =       0     MAXIT =     200     UNITS =ANGS    
 PLTORB=       F     MOLPLT=       F     AIMPAC=       F     FRIEND=        
 NPRINT=       7     IREST =       0     GEOM  =INPUT   
 NORMF =       0     NORMP =       0     ITOL  =      20     ICUT  =       9
 INTTYP=BEST         GRDTYP=BEST         QMTTOL= 1.0E-06

     $SYSTEM OPTIONS
     ---------------
  REPLICATED MEMORY=   250000000 WORDS (ON EVERY NODE).
 DISTRIBUTED MEMDDI=           0 MILLION WORDS IN AGGREGATE,
 MEMDDI DISTRIBUTED OVER   1 PROCESSORS IS           0 WORDS/PROCESSOR.
 TOTAL MEMORY REQUESTED ON EACH PROCESSOR=   250000000 WORDS.
 TIMLIM=        2879.00 MINUTES, OR       2.0 DAYS.
 PARALL= F  BALTYP=  DLB     KDIAG=    0  COREFL= F
 MXSEQ2=     300 MXSEQ3=     150  mem10=         0

          ----------------
          PROPERTIES INPUT
          ----------------

     MOMENTS            FIELD           POTENTIAL          DENSITY
 IEMOM =       1   IEFLD =       0   IEPOT =       0   IEDEN =       0
 WHERE =COMASS     WHERE =NUCLEI     WHERE =NUCLEI     WHERE =NUCLEI  
 OUTPUT=BOTH       OUTPUT=BOTH       OUTPUT=BOTH       OUTPUT=BOTH    
 IEMINT=       0   IEFINT=       0                     IEDINT=       0
                                                       MORB  =       0
          EXTRAPOLATION IN EFFECT
          DIIS IN EFFECT
 ORBITAL PRINTING OPTION: NPREO=     1   106     2     1

     -------------------------------
     INTEGRAL TRANSFORMATION OPTIONS
     -------------------------------
     NWORD  =            0
     CUTOFF = 1.0E-09     MPTRAN =       0
     DIRTRF =       T     AOINTS =DUP     

          ----------------------
          INTEGRAL INPUT OPTIONS
          ----------------------
 NOPK  =       1 NORDER=       0 SCHWRZ=       T

     ------------------------------------------
     THE POINT GROUP IS C1 , NAXIS= 0, ORDER= 1
     ------------------------------------------

     DIMENSIONS OF THE SYMMETRY SUBSPACES ARE
 A   =  106

 ..... DONE SETTING UP THE RUN .....
 STEP CPU TIME =     0.01 TOTAL CPU TIME =          0.0 (      0.0 MIN)
 TOTAL WALL CLOCK TIME=          0.0 SECONDS, CPU UTILIZATION IS    33.33%


          -----------------------------
          STATIONARY POINT LOCATION RUN
          -----------------------------

 OBTAINING INITIAL HESSIAN, HESS=GUESS   
 CARTESIAN COORDINATE OPTIMIZATION USING BADGER'S RULE FORCE CONSTANT GUESS

          PARAMETERS CONTROLLING GEOMETRY SEARCH ARE
          METHOD =QA                  UPHESS =BFGS    
          NNEG   =         0          NFRZ   =         0
          NSTEP  =       999          IFOLOW =         1
          HESS   =GUESS               RESTAR =         F
          IHREP  =         0          HSSEND =         F
          NPRT   =         0          NPUN   =         0
          OPTTOL = 5.000E-04          RMIN   = 1.500E-03
          RMAX   = 1.000E-01          RLIM   = 7.000E-02
          DXMAX  = 3.000E-01          PURIFY =         F
          MOVIE  =         F          TRUPD  =         T
          TRMAX  = 5.000E-01          TRMIN  = 5.000E-02
          ITBMAT =         5          STPT   =         F
          STSTEP = 1.000E-02          PROJCT=          T

 BEGINNING GEOMETRY SEARCH POINT NSERCH=   0 ...

 COORDINATES OF ALL ATOMS ARE (ANGS)
   ATOM   CHARGE       X              Y              Z
 ------------------------------------------------------------
 C           6.0   1.1741600000  -0.7928500000   0.1482300000
 C           6.0   1.2872200000   0.6965200000  -0.0106300000
 C           6.0  -0.0493900000   1.4647900000  -0.0251100000
 C           6.0  -1.2817100000   0.6108500000  -0.1120400000
 C           6.0  -1.2384700000  -0.7249700000  -0.0819400000
 C           6.0   0.0045700000  -1.4359100000   0.0828100000
 H           1.0   2.0915400000  -1.3553600000   0.2976000000
 H           1.0   1.8195200000   0.8904800000  -0.9447000000
 H           1.0   1.9217600000   1.0963200000   0.7842500000
 H           1.0  -0.0471800000   2.1707600000  -0.8644500000
 H           1.0  -0.1195800000   2.0746200000   0.8771700000
 H           1.0  -2.2402100000   1.1165100000  -0.1919700000
 H           1.0  -2.1522600000  -1.3120600000  -0.1432100000
 H           1.0  -0.0397300000  -2.5191900000   0.1694100000

          ********************
          1 ELECTRON INTEGRALS
          ********************
 ...... END OF ONE-ELECTRON INTEGRALS ......
 STEP CPU TIME =     0.01 TOTAL CPU TIME =          0.0 (      0.0 MIN)
 TOTAL WALL CLOCK TIME=          0.0 SECONDS, CPU UTILIZATION IS    40.00%

          -------------
          GUESS OPTIONS
          -------------
          GUESS =HUCKEL            NORB  =       0          NORDER=       0
          MIX   =       F          PRTMO =       F          PUNMO =       F
          TOLZ  = 1.0E-08          TOLE  = 1.0E-05
          SYMDEN=       F          PURIFY=       F

 INITIAL GUESS ORBITALS GENERATED BY HUCKEL   ROUTINE.
 HUCKEL GUESS REQUIRES     97814 WORDS.

 SYMMETRIES FOR INITIAL GUESS ORBITALS FOLLOW.   BOTH SET(S).
    22 ORBITALS ARE OCCUPIED (    6 CORE ORBITALS).
     7=A        8=A        9=A       10=A       11=A       12=A       13=A   
    14=A       15=A       16=A       17=A       18=A       19=A       20=A   
    21=A       22=A       23=A       24=A       25=A       26=A       27=A   
    28=A       29=A       30=A       31=A       32=A   
 ...... END OF INITIAL ORBITAL SELECTION ......
 STEP CPU TIME =     0.01 TOTAL CPU TIME =          0.0 (      0.0 MIN)
 TOTAL WALL CLOCK TIME=          0.1 SECONDS, CPU UTILIZATION IS    42.86%

                    ----------------------
                    AO INTEGRAL TECHNOLOGY
                    ----------------------
     S,P,L SHELL ROTATED AXIS INTEGRALS, REPROGRAMMED BY
        KAZUYA ISHIMURA (IMS) AND JOSE SIERRA (SYNSTAR).
     S,P,D,L SHELL ROTATED AXIS INTEGRALS PROGRAMMED BY
        KAZUYA ISHIMURA (INSTITUTE FOR MOLECULAR SCIENCE).
     S,P,D,F,G SHELL TO TOTAL QUARTET ANGULAR MOMENTUM SUM 5,
        ERIC PROGRAM BY GRAHAM FLETCHER (ELORET AND NASA ADVANCED
        SUPERCOMPUTING DIVISION, AMES RESEARCH CENTER).
     S,P,D,F,G,L SHELL GENERAL RYS QUADRATURE PROGRAMMED BY
        MICHEL DUPUIS (PACIFIC NORTHWEST NATIONAL LABORATORY).

          --------------------
          2 ELECTRON INTEGRALS
          --------------------

 DIRECT SCF METHOD SKIPS INTEGRAL STORAGE ON DISK.
 DIRECT TRANSFORMATION SKIPS AO INTEGRAL STORAGE ON DISK.
  ...... END OF TWO-ELECTRON INTEGRALS .....
 STEP CPU TIME =     0.00 TOTAL CPU TIME =          0.0 (      0.0 MIN)
 TOTAL WALL CLOCK TIME=          0.1 SECONDS, CPU UTILIZATION IS    37.50%

          --------------------------
             R-B3LYP SCF CALCULATION
          --------------------------

     NUCLEAR ENERGY =       218.6924018589
     MAXIT =  200     NPUNCH=    2
     EXTRAP=T  DAMP=F  SHIFT=F  RSTRCT=F  DIIS=T  DEM=F  SOSCF=F
         DENSITY MATRIX CONVERGENCE THRESHOLD=  2.00E-05
     COARSE -> FINE DFT GRID SWITCH THRESHOLD=  3.00E-04 (SWITCH IN $DFT)
                   HF -> DFT SWITCH THRESHOLD=  5.00E-03 (SWOFF IN $DFT)
     MEMORY REQUIRED FOR RHF ITERS=   1026872 WORDS.

 DIRECT SCF CALCULATION, SCHWRZ=T   FDIFF=T,  DIRTHR=  0.00E+00 NITDIR=10
 SCHWARZ INEQUALITY OVERHEAD:      5666 INTEGRALS, T=        0.01

 DFT CODE IS SWITCHING FROM THE FINE GRID NRAD= 96,  NLEB=  590
                      TO THE COARSE GRID NRAD0= 24, NLEB0=  110

     EXCHANGE FUNCTIONAL   =B88&HFX   
     CORRELATION FUNCTIONAL=LYP88&VWN5
     DFT THRESHOLD         =.504E-08
     GRID CHANGE THRESHOLD =.300E-03
 FOR AN EULER-MACLAURIN QUADRATURE USING  96 RADIAL POINTS:
 SMALLEST GAUSSIAN PRIMITIVE EXPONENT=        0.1612777588 OF TYPE -S-
 ON ATOM NUMBER   7 HAS RADIAL NORMALIZATION=  1.000000
  LARGEST GAUSSIAN PRIMITIVE EXPONENT=     3047.5248800000 OF TYPE -S-
 ON ATOM NUMBER   1 HAS RADIAL NORMALIZATION=  1.000000
 DFT IS SWITCHED OFF, PERFORMING PURE SCF UNTIL SWOFF THRESHOLD IS REACHED.

                                                                                   NONZERO     BLOCKS
 ITER EX DEM     TOTAL ENERGY        E CHANGE  DENSITY CHANGE    DIIS ERROR      INTEGRALS    SKIPPED
          * * *   INITIATING DIIS PROCEDURE   * * *
   1  0  0     -231.2865381940  -231.2865381940   0.142587148   0.412327718       15284967      45163
   2  1  0     -231.7942880918    -0.5077498978   0.059706644   0.074709033       15277867      48497
   3  2  0     -231.8213765921    -0.0270885003   0.016666468   0.030833878       15214078      53688
   4  3  0     -231.8265727290    -0.0051961369   0.006656054   0.005569248       15104559      60360
   5  4  0     -231.8269242022    -0.0003514732   0.001740442   0.002165797       14973872      65756
 CONVERGED TO SWOFF, SO DFT CALCULATION IS NOW SWITCHED ON.
          * * *   INITIATING DIIS PROCEDURE   * * *
   6  5  0     -233.2225462629    -1.3956220607   0.076096475   0.095633651       15286393      45313
   7  6  0     -233.2476057228    -0.0250594599   0.035260166   0.021838157       15240721      51633
   8  7  0     -233.2478116311    -0.0002059083   0.016039301   0.021370498       15129732      57190
   9  8  0     -233.2511467843    -0.0033351531   0.001436307   0.001299940       15063683      61011
  10  9  0     -233.2511578356    -0.0000110514   0.000710560   0.000672502       14657337      79676
  11 10  0     -233.2511596970    -0.0000018613   0.000335377   0.000301052       14318016      91941
  12 11  0     -233.2511601663    -0.0000004693   0.000080651   0.000095148       14080805     101064
 DFT CODE IS SWITCHING BACK TO THE FINE GRID
          * * *   INITIATING DIIS PROCEDURE   * * *
  13 12  0     -233.2536542326    -0.0024940663   0.002321076   0.000959663       15289202      44732
  14 13  0     -233.2536603297    -0.0000060971   0.000289277   0.000172371       14721630      76812
  15 14  0     -233.2536603627    -0.0000000330   0.000144436   0.000153241       14233127      95230
  16 15  0     -233.2536605744    -0.0000002116   0.000046936   0.000034924       14004330     102766
  17 16  0     -233.2536605789    -0.0000000045   0.000018532   0.000021558       13270382     126280
  18 17  0     -233.2536605811    -0.0000000022   0.000001817   0.000001327       12851960     137708

          -----------------
          DENSITY CONVERGED
          -----------------
     TIME TO FORM FOCK OPERATORS=      27.0 SECONDS (       1.5 SEC/ITER)
     FOCK TIME ON FIRST ITERATION=       0.5, LAST ITERATION=       3.2
     TIME TO SOLVE SCF EQUATIONS=       0.1 SECONDS (       0.0 SEC/ITER)

 FINAL R-B3LYP ENERGY IS     -233.2536605811 AFTER  18 ITERATIONS
 DFT EXCHANGE + CORRELATION ENERGY =       -28.6129978857
 TOTAL ELECTRON NUMBER             =        44.0000230166

          ------------
          EIGENVECTORS
          ------------

                      1          2          3          4          5
                  -10.1804   -10.1799   -10.1748   -10.1746   -10.1698
                     A          A          A          A          A   
    1  C  1  S    0.004445   0.023049  -0.008919   0.988936  -0.046082
    2  C  1  S    0.000218   0.000716  -0.000649   0.049427  -0.002634
    3  C  1  X    0.000050   0.000038   0.000025  -0.000054   0.000217
    4  C  1  Y   -0.000129  -0.000188  -0.000066   0.000204   0.000067
    5  C  1  Z    0.000004   0.000021   0.000010  -0.000046   0.000022
    6  C  1  S   -0.001330   0.007307   0.002659  -0.016941   0.002212
    7  C  1  X    0.000986  -0.001763  -0.001353   0.002877  -0.000893
    8  C  1  Y    0.000056   0.003960   0.000750  -0.001689  -0.000480
    9  C  1  Z    0.000111  -0.000555  -0.000185   0.000530  -0.000057
   10  C  1 XX   -0.000044  -0.000336   0.000067  -0.009134   0.000371
   11  C  1 YY   -0.000132  -0.000639   0.000070  -0.009280   0.000328
   12  C  1 ZZ   -0.000101  -0.000439  -0.000010  -0.009503   0.000353
   13  C  1 XY   -0.000028  -0.000046   0.000024   0.000134  -0.000017
   14  C  1 XZ   -0.000017   0.000032   0.000012   0.000025   0.000002
   15  C  1 YZ    0.000009   0.000023   0.000002  -0.000014   0.000004
   16  C  2  S    0.206539   0.971064   0.000757  -0.023757   0.000805
   17  C  2  S    0.009954   0.049555   0.000163  -0.001539  -0.000086
   18  C  2  X    0.000063  -0.000024   0.000064   0.000080   0.000007
   19  C  2  Y   -0.000054  -0.000006   0.000008   0.000234   0.000032
   20  C  2  Z   -0.000013  -0.000006   0.000033  -0.000049   0.000011
   21  C  2  S    0.002662  -0.023680  -0.002402   0.005753   0.000586
   22  C  2  X   -0.002477   0.002552   0.001077  -0.001709  -0.000208
   23  C  2  Y    0.000783   0.001069   0.000426  -0.002204  -0.000029
   24  C  2  Z    0.000043  -0.000108  -0.000214   0.000239  -0.000046
   25  C  2 XX   -0.002234  -0.008741   0.000005   0.000120  -0.000010
   26  C  2 YY   -0.002142  -0.008739   0.000024  -0.000271   0.000020
   27  C  2 ZZ   -0.002025  -0.008565  -0.000007   0.000094  -0.000060
   28  C  2 XY    0.000176  -0.000035  -0.000008   0.000052  -0.000002
   29  C  2 XZ   -0.000011   0.000023   0.000006  -0.000021  -0.000001
   30  C  2 YZ   -0.000001   0.000028   0.000009   0.000051  -0.000014
   31  C  3  S    0.971010  -0.206882  -0.023072   0.000313   0.001064
   32  C  3  S    0.049302  -0.011094  -0.001518   0.000123   0.000066
   33  C  3  X   -0.000023  -0.000077   0.000164  -0.000023   0.000046
   34  C  3  Y   -0.000009   0.000033   0.000191   0.000062   0.000039
   35  C  3  Z    0.000005   0.000013   0.000031  -0.000051  -0.000001
   36  C  3  S   -0.020547   0.012112   0.005870  -0.002213  -0.001343
   37  C  3  X    0.000444   0.001888  -0.001016  -0.000161   0.000016
   38  C  3  Y    0.001804  -0.002737  -0.002662   0.001081   0.000635
   39  C  3  Z    0.000047  -0.000060  -0.000139   0.000268   0.000033
   40  C  3 XX   -0.008889   0.001448  -0.000225   0.000020   0.000049
   41  C  3 YY   -0.008854   0.001676   0.000052   0.000002   0.000023
   42  C  3 ZZ   -0.008643   0.001636   0.000087  -0.000008  -0.000027
   43  C  3 XY    0.000039   0.000131  -0.000174  -0.000000   0.000027
   44  C  3 XZ   -0.000008   0.000001  -0.000027  -0.000008   0.000013
   45  C  3 YZ   -0.000008   0.000015  -0.000005  -0.000006  -0.000001
   46  C  4  S    0.022171  -0.005210   0.989078   0.008356  -0.071993
   47  C  4  S    0.000703  -0.000077   0.049436   0.000216  -0.004192
   48  C  4  X   -0.000226  -0.000048   0.000207  -0.000067  -0.000087
   49  C  4  Y   -0.000066   0.000007   0.000057  -0.000011   0.000318
   50  C  4  Z   -0.000012   0.000010   0.000012  -0.000013  -0.000016
   51  C  4  S    0.006170  -0.004301  -0.017038   0.002327   0.006422
   52  C  4  X    0.003799  -0.002237  -0.002993   0.001279   0.001376
   53  C  4  Y    0.000789   0.000624   0.001657  -0.000738  -0.002336
   54  C  4  Z    0.000261  -0.000204  -0.000276   0.000068   0.000185
   55  C  4 XX   -0.000513   0.000135  -0.009342  -0.000111   0.000493
   56  C  4 YY   -0.000441   0.000105  -0.009069  -0.000073   0.000433
   57  C  4 ZZ   -0.000438   0.000093  -0.009502  -0.000176   0.000531
   58  C  4 XY   -0.000186   0.000020  -0.000008   0.000012  -0.000046
   59  C  4 XZ   -0.000007  -0.000008   0.000016  -0.000003  -0.000002
   60  C  4 YZ   -0.000018   0.000015  -0.000006  -0.000010  -0.000009
   61  C  5  S    0.000757  -0.000473   0.081829   0.003905   0.846389
   62  C  5  S    0.000039  -0.000276   0.003355   0.000213   0.042295
   63  C  5  X   -0.000035  -0.000061  -0.000038  -0.000072   0.000062
   64  C  5  Y   -0.000100  -0.000015  -0.000386   0.000024   0.000093
   65  C  5  Z   -0.000007   0.000016   0.000011  -0.000018   0.000017
   66  C  5  S   -0.002143   0.004005   0.006661  -0.002649  -0.012281
   67  C  5  X   -0.001773   0.002300   0.001999  -0.001242  -0.001228
   68  C  5  Y   -0.000273   0.000920   0.003148  -0.000971  -0.001850
   69  C  5  Z   -0.000138   0.000171   0.000106  -0.000049  -0.000137
   70  C  5 XX   -0.000007  -0.000025  -0.001020   0.000014  -0.008176
   71  C  5 YY    0.000041  -0.000019  -0.001072  -0.000051  -0.007935
   72  C  5 ZZ   -0.000048  -0.000107  -0.000999  -0.000030  -0.008268
   73  C  5 XY   -0.000027  -0.000025   0.000046   0.000009   0.000037
   74  C  5 XZ    0.000002   0.000009   0.000002   0.000004   0.000002
   75  C  5 YZ   -0.000001  -0.000007   0.000007  -0.000002  -0.000005
   76  C  6  S   -0.000087   0.000924   0.002133   0.083292   0.511550
   77  C  6  S   -0.000224   0.000143   0.000139   0.003432   0.025298
   78  C  6  X   -0.000014  -0.000065   0.000064  -0.000312   0.000150
   79  C  6  Y   -0.000081  -0.000055  -0.000048  -0.000227  -0.000053
   80  C  6  Z   -0.000005   0.000013   0.000006  -0.000012   0.000023
   81  C  6  S    0.002718  -0.003571  -0.002807   0.006558  -0.003282
   82  C  6  X   -0.000070   0.000772  -0.000248   0.001692  -0.001312
   83  C  6  Y    0.001493  -0.002479  -0.001641   0.003254   0.000699
   84  C  6  Z   -0.000110   0.000221   0.000098  -0.000117  -0.000152
   85  C  6 XX    0.000021   0.000042  -0.000020  -0.001103  -0.005136
   86  C  6 YY   -0.000043   0.000001   0.000024  -0.001011  -0.005021
   87  C  6 ZZ   -0.000111  -0.000001  -0.000011  -0.001014  -0.005116
   88  C  6 XY   -0.000004   0.000019  -0.000029  -0.000006   0.000149
   89  C  6 XZ    0.000011   0.000008   0.000004  -0.000019  -0.000021
   90  C  6 YZ   -0.000005  -0.000013   0.000002   0.000000   0.000002
   91  H  7  S   -0.000056  -0.000009   0.000046  -0.000419   0.000002
   92  H  7  S   -0.000010   0.000764   0.000382   0.001304   0.000072
   93  H  8  S   -0.000233   0.000205   0.000069  -0.000222  -0.000022
   94  H  8  S    0.000577   0.002830  -0.000225   0.000542  -0.000037
   95  H  9  S   -0.000204   0.000168   0.000081  -0.000157  -0.000008
   96  H  9  S    0.000446   0.002802  -0.000015   0.000366   0.000035
   97  H 10  S    0.000083  -0.000264  -0.000179   0.000088   0.000039
   98  H 10  S    0.002743  -0.000735   0.000409   0.000021  -0.000013
   99  H 11  S    0.000083  -0.000290  -0.000209   0.000050   0.000041
  100  H 11  S    0.002803  -0.000615   0.000517  -0.000253  -0.000058
  101  H 12  S   -0.000028  -0.000050  -0.000419   0.000038   0.000034
  102  H 12  S    0.000708  -0.000329   0.001291   0.000401   0.000318
  103  H 13  S   -0.000082   0.000068   0.000010  -0.000054  -0.000372
  104  H 13  S   -0.000288   0.000623   0.000820  -0.000246   0.001210
  105  H 14  S    0.000026  -0.000100  -0.000054   0.000006  -0.000219
  106  H 14  S    0.000427  -0.000497  -0.000267   0.000807   0.001092

                      6          7          8          9         10
                  -10.1693    -0.8274    -0.7364    -0.7332    -0.6121
                     A          A          A          A          A   
    1  C  1  S   -0.070106  -0.093080   0.015297   0.126362   0.018637
    2  C  1  S   -0.004138   0.176676  -0.029499  -0.245426  -0.037168
    3  C  1  X    0.000267  -0.050972   0.066230   0.023490   0.096405
    4  C  1  Y    0.000060   0.017430   0.088857   0.003829   0.150424
    5  C  1  Z    0.000023  -0.007487  -0.002072   0.004701  -0.008160
    6  C  1  S    0.009451   0.114581  -0.025940  -0.195684  -0.043410
    7  C  1  X   -0.004019  -0.002111   0.016049  -0.002086   0.025610
    8  C  1  Y    0.000833   0.004175   0.014682  -0.001110   0.035969
    9  C  1  Z   -0.000451  -0.000777  -0.000103   0.000421  -0.001922
   10  C  1 XX    0.000367   0.002866  -0.006843  -0.001775  -0.005881
   11  C  1 YY    0.000355   0.002536   0.008881  -0.001919   0.008064
   12  C  1 ZZ    0.000503  -0.009942   0.001769   0.012089   0.001745
   13  C  1 XY   -0.000079   0.001209  -0.003190  -0.001752  -0.002273
   14  C  1 XZ   -0.000007   0.001404  -0.000765  -0.001626  -0.000723
   15  C  1 YZ    0.000004  -0.001386  -0.001301   0.001677  -0.001576
   16  C  2  S    0.000867  -0.088419  -0.110853   0.067039  -0.100195
   17  C  2  S    0.000282   0.165126   0.214626  -0.129355   0.203070
   18  C  2  X    0.000011  -0.034587  -0.021252  -0.035505   0.101288
   19  C  2  Y    0.000072  -0.021324   0.042823   0.070167  -0.032596
   20  C  2  Z    0.000016   0.001685  -0.002063  -0.005561  -0.002616
   21  C  2  S   -0.003790   0.127754   0.180789  -0.111068   0.191748
   22  C  2  X    0.001426  -0.006436  -0.000564  -0.010689   0.042997
   23  C  2  Y    0.000707  -0.003072   0.012775   0.012444  -0.007446
   24  C  2  Z   -0.000200  -0.001016  -0.000025   0.000003  -0.001577
   25  C  2 XX    0.000037   0.001277   0.002625   0.006845  -0.006812
   26  C  2 YY    0.000092   0.002118  -0.004319  -0.005637  -0.005189
   27  C  2 ZZ    0.000053  -0.003159   0.000408   0.000138   0.005599
   28  C  2 XY    0.000008  -0.000187  -0.004188  -0.004570   0.006297
   29  C  2 XZ    0.000016  -0.000036   0.000268   0.000204   0.000170
   30  C  2 YZ   -0.000006  -0.000392   0.000797   0.000673   0.000991
   31  C  3  S   -0.000397  -0.088288  -0.112022  -0.065160   0.100098
   32  C  3  S   -0.000285   0.164963   0.216815   0.125716  -0.202896
   33  C  3  X   -0.000037  -0.000904   0.046313  -0.079360   0.079550
   34  C  3  Y   -0.000031  -0.040768   0.002966  -0.005149  -0.070798
   35  C  3  Z    0.000002  -0.000449   0.001203  -0.003738  -0.002196
   36  C  3  S    0.003590   0.127426   0.183332   0.108142  -0.191784
   37  C  3  X    0.000126   0.000664   0.011146  -0.016312   0.028249
   38  C  3  Y   -0.001495  -0.006837   0.005798   0.002875  -0.033464
   39  C  3  Z   -0.000031   0.000666  -0.000468  -0.000715  -0.001287
   40  C  3 XX   -0.000057   0.002057   0.000563  -0.000979   0.010335
   41  C  3 YY   -0.000050   0.001367  -0.002341  -0.000156   0.001708
   42  C  3 ZZ   -0.000070  -0.003185   0.000439  -0.000223  -0.005644
   43  C  3 XY   -0.000020   0.000341  -0.005422   0.008649  -0.003937
   44  C  3 XZ    0.000003   0.000235  -0.000264   0.000200   0.000460
   45  C  3 YZ    0.000009   0.000095  -0.000270   0.000390   0.000254
   46  C  4  S    0.040237  -0.093016   0.013054  -0.126746  -0.018176
   47  C  4  S    0.002418   0.176610  -0.025115   0.246240   0.036263
   48  C  4  X    0.000052   0.041169   0.043319   0.008121  -0.080761
   49  C  4  Y   -0.000128  -0.035034   0.101830  -0.023893  -0.159769
   50  C  4  Z    0.000001   0.004340   0.000817   0.001816  -0.005624
   51  C  4  S   -0.007317   0.114544  -0.022681   0.196269   0.042435
   52  C  4  X   -0.002432   0.004687   0.004309  -0.000212  -0.017923
   53  C  4  Y    0.002225   0.000327   0.021412   0.001933  -0.040337
   54  C  4  Z   -0.000236   0.000487   0.000104   0.000062  -0.001489
   55  C  4 XX   -0.000204   0.001858   0.007313   0.000637  -0.006272
   56  C  4 YY   -0.000102   0.003713  -0.005172   0.003260   0.004034
   57  C  4 ZZ   -0.000276  -0.010107   0.001506  -0.012369  -0.001627
   58  C  4 XY    0.000025   0.000389   0.006460   0.000761  -0.006010
   59  C  4 XZ    0.000015   0.001095   0.000403   0.001196  -0.000588
   60  C  4 YZ    0.000003  -0.000292   0.000774  -0.000195  -0.000629
   61  C  5  S   -0.512382  -0.096500   0.105027  -0.071499  -0.080466
   62  C  5  S   -0.026171   0.183608  -0.204522   0.141676   0.162826
   63  C  5  X   -0.000383   0.046022  -0.036456  -0.041618  -0.080958
   64  C  5  Y    0.000044   0.034348   0.022004   0.095465   0.062728
   65  C  5  Z   -0.000047   0.004877  -0.006464  -0.005516  -0.009842
   66  C  5  S    0.016193   0.119413  -0.144570   0.088198   0.119746
   67  C  5  X    0.004995   0.004837  -0.001148  -0.025254  -0.039730
   68  C  5  Y    0.001801   0.001663   0.012763   0.000409  -0.007732
   69  C  5  Z    0.000491   0.000530  -0.001056  -0.002030  -0.003769
   70  C  5 XX    0.004474   0.002635  -0.004428  -0.007400  -0.004582
   71  C  5 YY    0.004377   0.003054   0.000569   0.006892   0.000863
   72  C  5 ZZ    0.004755  -0.010526   0.010502  -0.006492  -0.006682
   73  C  5 XY    0.000210  -0.000484   0.002858   0.004086   0.005470
   74  C  5 XZ   -0.000038   0.001576  -0.001923  -0.000307  -0.000250
   75  C  5 YZ    0.000047  -0.000533   0.000717   0.000100   0.000294
   76  C  6  S    0.846753  -0.096556   0.106234   0.069632   0.080362
   77  C  6  S    0.042818   0.183701  -0.206885  -0.138022  -0.162614
   78  C  6  X   -0.000185   0.006189   0.035872  -0.103813  -0.095265
   79  C  6  Y    0.000321   0.057274  -0.020690  -0.012501   0.037716
   80  C  6  Z   -0.000029  -0.002997   0.003875  -0.008046  -0.013536
   81  C  6  S   -0.020022   0.119334  -0.146138  -0.085579  -0.119345
   82  C  6  X    0.000428  -0.001074   0.011419  -0.013300  -0.013415
   83  C  6  Y   -0.005542   0.004939   0.005750   0.021455   0.038159
   84  C  6  Z    0.000386  -0.000189   0.000567  -0.002602  -0.004655
   85  C  6 XX   -0.007487   0.003279  -0.002861  -0.000007   0.004730
   86  C  6 YY   -0.007838   0.002379  -0.000966   0.000641  -0.000937
   87  C  6 ZZ   -0.008050  -0.010505   0.010577   0.006250   0.006582
   88  C  6 XY    0.000020  -0.000002   0.003729  -0.009289  -0.005463
   89  C  6 XZ    0.000067   0.001450  -0.001732  -0.000084  -0.000013
   90  C  6 YZ   -0.000021  -0.001073   0.001385  -0.000194   0.000142
   91  H  7  S    0.000069   0.037258  -0.006349  -0.075859  -0.012834
   92  H  7  S    0.000510   0.003948  -0.003200  -0.016739  -0.004852
   93  H  8  S    0.000102   0.042950   0.070523  -0.042804   0.095468
   94  H  8  S   -0.000134   0.003332   0.016389  -0.007074   0.034325
   95  H  9  S    0.000105   0.041618   0.071597  -0.042577   0.095199
   96  H  9  S    0.000028   0.004638   0.016047  -0.008239   0.034900
   97  H 10  S   -0.000093   0.041570   0.071765   0.041290  -0.094275
   98  H 10  S    0.000031   0.004323   0.016066   0.007537  -0.034688
   99  H 11  S   -0.000104   0.042640   0.071588   0.041361  -0.095805
  100  H 11  S    0.000069   0.003556   0.016609   0.007109  -0.034330
  101  H 12  S   -0.000061   0.037259  -0.005071   0.076117   0.012350
  102  H 12  S   -0.000420   0.003933  -0.003031   0.016846   0.004713
  103  H 13  S    0.000237   0.037807  -0.061186   0.040128   0.076090
  104  H 13  S    0.000017   0.003768  -0.012597   0.001195   0.021795
  105  H 14  S   -0.000383   0.037828  -0.061858  -0.039000  -0.076055
  106  H 14  S    0.000550   0.003730  -0.012616  -0.000910  -0.021742

                     11         12         13         14         15
                   -0.5832    -0.4967    -0.4643    -0.4497    -0.4175
                     A          A          A          A          A   
    1  C  1  S   -0.103378   0.005694  -0.060535   0.024094   0.002961
    2  C  1  S    0.210371  -0.012272   0.127111  -0.049962  -0.006503
    3  C  1  X    0.060285  -0.179999   0.132254  -0.049246  -0.167378
    4  C  1  Y   -0.035140   0.107714  -0.002015   0.025229  -0.224463
    5  C  1  Z    0.008516  -0.028168   0.048787   0.078156   0.014141
    6  C  1  S    0.169933  -0.026630   0.122360  -0.059640  -0.027936
    7  C  1  X    0.040110  -0.059291   0.062635  -0.021676  -0.044389
    8  C  1  Y   -0.012904   0.042531  -0.001043   0.007039  -0.076069
    9  C  1  Z    0.005356  -0.009306   0.022082   0.036670   0.007694
   10  C  1 XX    0.000396  -0.000632   0.003594  -0.001147   0.001439
   11  C  1 YY   -0.003864  -0.003825  -0.005406   0.003932  -0.003522
   12  C  1 ZZ   -0.008531  -0.000338  -0.005038   0.000263   0.000298
   13  C  1 XY   -0.006216   0.000232  -0.013552   0.005070   0.004712
   14  C  1 XZ    0.001644  -0.000203   0.001903  -0.001634  -0.000213
   15  C  1 YZ   -0.001203   0.000384   0.001376   0.006570   0.001768
   16  C  2  S    0.037951   0.002170   0.043593  -0.017838  -0.000111
   17  C  2  S   -0.077701  -0.004265  -0.088739   0.036304  -0.001266
   18  C  2  X    0.021127  -0.135518  -0.078724   0.036597  -0.061288
   19  C  2  Y   -0.133707  -0.066941  -0.072005   0.048291   0.239770
   20  C  2  Z    0.011538  -0.008230   0.123084   0.280462  -0.004464
   21  C  2  S   -0.070449  -0.009948  -0.114402   0.050881  -0.007299
   22  C  2  X    0.001903  -0.057765  -0.035699   0.015910  -0.033021
   23  C  2  Y   -0.046762  -0.025789  -0.034382   0.018204   0.103938
   24  C  2  Z    0.002836  -0.006313   0.052186   0.121256  -0.003682
   25  C  2 XX   -0.003483   0.002655  -0.000158   0.001716   0.002996
   26  C  2 YY    0.009399   0.000115   0.011942  -0.003311  -0.003937
   27  C  2 ZZ   -0.003183  -0.006885  -0.008183  -0.000381   0.002151
   28  C  2 XY    0.002391   0.003924  -0.007342   0.005073  -0.000735
   29  C  2 XZ   -0.000114  -0.001374   0.002895   0.007378   0.000689
   30  C  2 YZ   -0.001981  -0.001012   0.000592   0.008867   0.001789
   31  C  3  S    0.038326   0.002404  -0.043641   0.017660  -0.000026
   32  C  3  S   -0.078489  -0.004603   0.088970  -0.035562  -0.001512
   33  C  3  X   -0.126227   0.010690   0.027775  -0.016390   0.237350
   34  C  3  Y   -0.049771  -0.150709   0.105252  -0.051672   0.065406
   35  C  3  Z   -0.005036   0.001185   0.113359   0.285068   0.001960
   36  C  3  S   -0.071184  -0.011086   0.113856  -0.052380  -0.007069
   37  C  3  X   -0.041185   0.006996   0.014062  -0.004235   0.107191
   38  C  3  Y   -0.022266  -0.062518   0.048725  -0.020627   0.022801
   39  C  3  Z   -0.000349   0.002987   0.047918   0.123286   0.002570
   40  C  3 XX    0.004436  -0.002135  -0.014483   0.006054  -0.001626
   41  C  3 YY    0.001656   0.005159   0.003108  -0.002878   0.000540
   42  C  3 ZZ   -0.003356  -0.007118   0.007624  -0.001491   0.002325
   43  C  3 XY    0.007726   0.000726  -0.002393   0.000556  -0.003847
   44  C  3 XZ    0.001013   0.000021   0.000320   0.003656  -0.000564
   45  C  3 YZ    0.000525   0.000643   0.003199   0.011089  -0.000733
   46  C  4  S   -0.103372   0.005157   0.060498  -0.024027   0.002114
   47  C  4  S    0.210410  -0.011137  -0.127158   0.049623  -0.004768
   48  C  4  X   -0.061544   0.185140   0.075495  -0.035275  -0.105354
   49  C  4  Y    0.033653  -0.099014  -0.113907   0.032954  -0.261559
   50  C  4  Z   -0.005310   0.015436   0.038422   0.084007  -0.009314
   51  C  4  S    0.169991  -0.025712  -0.122065   0.060545  -0.024337
   52  C  4  X   -0.031806   0.067009   0.036240  -0.010383  -0.041875
   53  C  4  Y    0.027972  -0.028839  -0.053793   0.016249  -0.078078
   54  C  4  Z   -0.003143   0.005260   0.017454   0.039140  -0.004865
   55  C  4 XX    0.002089  -0.003154  -0.007193   0.001784  -0.006112
   56  C  4 YY   -0.005386  -0.001331   0.009089  -0.003746   0.003660
   57  C  4 ZZ   -0.008710  -0.000348   0.004878  -0.001126   0.000426
   58  C  4 XY   -0.005245  -0.001534   0.011130  -0.005066  -0.000302
   59  C  4 XZ    0.001047  -0.000261   0.001111   0.006320  -0.000897
   60  C  4 YZ   -0.000301  -0.000126   0.001846   0.002174  -0.000203
   61  C  5  S    0.057671   0.004843  -0.065217   0.024460  -0.006553
   62  C  5  S   -0.119242  -0.010434   0.136561  -0.049914   0.010408
   63  C  5  X   -0.060683   0.197444  -0.106412   0.049812  -0.127182
   64  C  5  Y    0.190465   0.118138  -0.049497   0.031085   0.245557
   65  C  5  Z   -0.012970   0.012394   0.005748   0.052345  -0.020906
   66  C  5  S   -0.094970  -0.016924   0.127116  -0.060648   0.011978
   67  C  5  X   -0.005452   0.064581  -0.050189   0.013459  -0.043577
   68  C  5  Y    0.061719   0.043428  -0.038029   0.013759   0.087177
   69  C  5  Z   -0.002558   0.003426   0.003386   0.024229  -0.007018
   70  C  5 XX   -0.007290  -0.001245   0.002486  -0.002169  -0.003946
   71  C  5 YY    0.006701  -0.003759  -0.006862   0.003055   0.001691
   72  C  5 ZZ    0.004660  -0.000057  -0.004588   0.002192  -0.000619
   73  C  5 XY    0.000511   0.000417   0.013535  -0.006046   0.001478
   74  C  5 XZ   -0.001533  -0.000049   0.000855   0.001882  -0.000473
   75  C  5 YZ    0.000455   0.000349   0.002295   0.002094   0.000206
   76  C  6  S    0.057879   0.004283   0.065125  -0.024615  -0.006829
   77  C  6  S   -0.119647  -0.009216  -0.136234   0.050508   0.010827
   78  C  6  X    0.194455   0.002508  -0.014490  -0.013249   0.272882
   79  C  6  Y    0.044655   0.229115   0.123244  -0.047810   0.010332
   80  C  6  Z    0.015430  -0.017426   0.005353   0.050217   0.031648
   81  C  6  S   -0.095288  -0.016352  -0.126965   0.061103   0.013570
   82  C  6  X    0.055786   0.004778   0.006524  -0.008283   0.097000
   83  C  6  Y    0.026760   0.076714   0.064412  -0.015520   0.006297
   84  C  6  Z    0.003408  -0.005408   0.003679   0.023377   0.011575
   85  C  6 XX    0.002670  -0.003529   0.014548  -0.006475  -0.001143
   86  C  6 YY   -0.003253  -0.001462  -0.010323   0.005267  -0.000993
   87  C  6 ZZ    0.004677  -0.000145   0.004598  -0.002090  -0.000659
   88  C  6 XY    0.007294  -0.001073  -0.002020  -0.000090   0.003323
   89  C  6 XZ   -0.000775  -0.000420   0.001919   0.000655  -0.000030
   90  C  6 YZ    0.001577   0.000265   0.002450   0.002422   0.000717
   91  H  7  S    0.115849  -0.115066   0.130164  -0.050904  -0.020924
   92  H  7  S    0.047273  -0.074965   0.082251  -0.033927  -0.021397
   93  H  8  S   -0.040863  -0.040629  -0.129241  -0.108338   0.011341
   94  H  8  S   -0.018913  -0.028868  -0.082718  -0.086082   0.011474
   95  H  9  S   -0.043019  -0.060592  -0.030173   0.159630   0.031337
   96  H  9  S   -0.018618  -0.039079  -0.010427   0.116847   0.028184
   97  H 10  S   -0.043311  -0.054759   0.029269  -0.164333   0.026331
   98  H 10  S   -0.018704  -0.035520   0.010009  -0.120740   0.024217
   99  H 11  S   -0.041410  -0.047734   0.126138   0.105202   0.015217
  100  H 11  S   -0.019123  -0.033194   0.080334   0.083691   0.014478
  101  H 12  S    0.115851  -0.113952  -0.131708   0.048907  -0.023037
  102  H 12  S    0.047288  -0.074292  -0.083026   0.033259  -0.023400
  103  H 13  S   -0.070369  -0.123803   0.130899  -0.061110  -0.009542
  104  H 13  S   -0.028608  -0.082997   0.078756  -0.042960  -0.009369
  105  H 14  S   -0.070592  -0.122959  -0.134133   0.055890  -0.005776
  106  H 14  S   -0.028700  -0.082709  -0.081333   0.038522  -0.005817

                     16         17         18         19         20
                   -0.4033    -0.3791    -0.3602    -0.3225    -0.3142
                     A          A          A          A          A   
    1  C  1  S    0.026198   0.001647  -0.002654  -0.004614   0.006315
    2  C  1  S   -0.059036  -0.005675   0.006900   0.018771  -0.019372
    3  C  1  X    0.272838  -0.003372  -0.005313   0.090721   0.165879
    4  C  1  Y   -0.121477  -0.066011   0.031576   0.266540  -0.115712
    5  C  1  Z    0.043473   0.008180   0.122585  -0.023461   0.048052
    6  C  1  S   -0.089972  -0.008766   0.004813  -0.051836   0.007991
    7  C  1  X    0.083232   0.010661  -0.000319   0.085240   0.048577
    8  C  1  Y   -0.027696   0.015528   0.016965   0.078805  -0.025171
    9  C  1  Z    0.013944   0.001775   0.074778  -0.003793   0.017803
   10  C  1 XX    0.005538   0.010977   0.000174  -0.009753   0.012777
   11  C  1 YY    0.002843  -0.010078   0.001909   0.009621  -0.005731
   12  C  1 ZZ    0.000941   0.000429  -0.002007   0.000451  -0.000639
   13  C  1 XY   -0.008585   0.004566  -0.001523  -0.000974  -0.019246
   14  C  1 XZ    0.001063   0.000953   0.001092  -0.001012   0.001825
   15  C  1 YZ   -0.001027   0.001547   0.006724  -0.001293  -0.002494
   16  C  2  S    0.010196   0.024362  -0.003698  -0.007287  -0.003249
   17  C  2  S   -0.018148  -0.053836   0.008730   0.015995   0.012190
   18  C  2  X    0.068190   0.292262  -0.050446  -0.109346  -0.219469
   19  C  2  Y    0.092192   0.063370   0.027013  -0.236884   0.170158
   20  C  2  Z   -0.007691   0.021779   0.301971   0.017619  -0.056334
   21  C  2  S   -0.065963  -0.100493   0.012857   0.071153  -0.012180
   22  C  2  X    0.057821   0.126737  -0.026409  -0.077470  -0.102062
   23  C  2  Y    0.021621   0.045033   0.014519  -0.130905   0.097627
   24  C  2  Z   -0.002979   0.003853   0.136717   0.012360  -0.024883
   25  C  2 XX    0.004956  -0.004217   0.002154  -0.010193   0.004086
   26  C  2 YY   -0.007314   0.000185   0.001901   0.014742  -0.002042
   27  C  2 ZZ    0.003939   0.010663  -0.005570  -0.009398  -0.004505
   28  C  2 XY   -0.004746   0.006628   0.001235  -0.007699  -0.012591
   29  C  2 XZ    0.001795   0.002886   0.023228  -0.001085  -0.003032
   30  C  2 YZ    0.000168   0.002111  -0.001113  -0.003141  -0.002219
   31  C  3  S   -0.010373   0.024331  -0.001606   0.007251  -0.002890
   32  C  3  S    0.018617  -0.053659   0.004932  -0.015954   0.010998
   33  C  3  X   -0.047440  -0.093021   0.042179   0.148618   0.260266
   34  C  3  Y   -0.110267   0.283272  -0.038988   0.213341  -0.099074
   35  C  3  Z   -0.024959  -0.031148  -0.301794   0.001205   0.027969
   36  C  3  S    0.066506  -0.101338   0.000593  -0.070619  -0.011321
   37  C  3  X    0.009485  -0.024828   0.018097   0.073546   0.135545
   38  C  3  Y   -0.063040   0.133077  -0.015972   0.132852  -0.040391
   39  C  3  Z   -0.012412  -0.010126  -0.136534   0.002212   0.012438
   40  C  3 XX    0.000642  -0.005937   0.002175  -0.014304   0.009183
   41  C  3 YY    0.001953   0.001541   0.000633   0.009452  -0.006356
   42  C  3 ZZ   -0.004336   0.011085  -0.003990   0.009696  -0.005292
   43  C  3 XY    0.008550   0.005360  -0.000301  -0.008855  -0.009188
   44  C  3 XZ    0.000011   0.000108   0.012367  -0.000792  -0.001851
   45  C  3 YZ   -0.000111  -0.002781  -0.020143  -0.002123   0.001144
   46  C  4  S   -0.026429   0.001481  -0.000986   0.004566   0.006764
   47  C  4  S    0.059623  -0.005536   0.001884  -0.018686  -0.019922
   48  C  4  X    0.248867  -0.055514   0.001610  -0.183304  -0.191668
   49  C  4  Y   -0.166957  -0.036929   0.030818  -0.212531   0.084533
   50  C  4  Z    0.016182  -0.008551  -0.124511  -0.016574   0.015735
   51  C  4  S    0.090714  -0.006115   0.006471   0.052206   0.002240
   52  C  4  X    0.068342   0.008854   0.005807  -0.024197  -0.052611
   53  C  4  Y   -0.055530   0.016173   0.009803  -0.113366   0.030198
   54  C  4  Z    0.003379  -0.003300  -0.075199  -0.004279   0.017257
   55  C  4 XX   -0.009846  -0.008153   0.003279  -0.005365   0.013784
   56  C  4 YY    0.001516   0.008986  -0.001543   0.005454  -0.006561
   57  C  4 ZZ   -0.000945   0.000424  -0.001275  -0.000444  -0.000710
   58  C  4 XY    0.005545  -0.008489  -0.000956  -0.009298  -0.018473
   59  C  4 XZ   -0.001238  -0.000845  -0.005341  -0.000550   0.001861
   60  C  4 YZ    0.000039  -0.001440  -0.004496  -0.001013  -0.002695
   61  C  5  S   -0.011589  -0.022129   0.003090   0.001189  -0.002718
   62  C  5  S    0.026893   0.051131  -0.006472   0.008989   0.010076
   63  C  5  X    0.119324   0.238661   0.008203   0.077291   0.199550
   64  C  5  Y    0.178779   0.045876  -0.031268   0.190356  -0.115859
   65  C  5  Z    0.006905   0.019779  -0.042789   0.000267   0.062031
   66  C  5  S    0.034734   0.084335  -0.009587  -0.115207   0.016580
   67  C  5  X    0.053685   0.065593   0.002766  -0.043349   0.066190
   68  C  5  Y    0.009436   0.025922  -0.010789   0.027712  -0.048156
   69  C  5  Z    0.005609   0.005226  -0.016679  -0.005428   0.030418
   70  C  5 XX   -0.015514  -0.000228   0.000769  -0.012694   0.001596
   71  C  5 YY    0.008463  -0.006153  -0.000425   0.004923  -0.004133
   72  C  5 ZZ   -0.000129  -0.000518   0.000429   0.001747   0.000464
   73  C  5 XY   -0.000272  -0.011579   0.000151  -0.015283  -0.014708
   74  C  5 XZ   -0.001141   0.000663   0.001413  -0.001179   0.001609
   75  C  5 YZ   -0.000782  -0.000816  -0.004767  -0.001769  -0.000452
   76  C  6  S    0.011877  -0.022240   0.000171  -0.001015  -0.002594
   77  C  6  S   -0.027455   0.051211  -0.000371  -0.009332   0.009986
   78  C  6  X   -0.101042  -0.081580  -0.022507  -0.124285  -0.207434
   79  C  6  Y   -0.194314   0.227682   0.006336  -0.164648   0.117534
   80  C  6  Z    0.012001  -0.023936   0.042790  -0.003597   0.003275
   81  C  6  S   -0.034976   0.086298   0.005946   0.114440   0.013678
   82  C  6  X    0.016391  -0.010355  -0.007612  -0.045700  -0.079134
   83  C  6  Y   -0.051017   0.070546   0.005332   0.022644   0.033563
   84  C  6  Z    0.008935  -0.006469   0.016801  -0.008167   0.010536
   85  C  6 XX   -0.002562   0.004021  -0.000655  -0.011892   0.008538
   86  C  6 YY    0.009551  -0.010376   0.000055   0.019776  -0.010745
   87  C  6 ZZ    0.000272  -0.000559   0.000404  -0.001786   0.000199
   88  C  6 XY   -0.011938  -0.008650   0.000662  -0.001418  -0.010152
   89  C  6 XZ    0.000533   0.001243   0.004725  -0.001598   0.001423
   90  C  6 YZ   -0.001737   0.000224   0.001352  -0.002369   0.001088
   91  H  7  S    0.161267   0.020641   0.001861  -0.041273   0.161281
   92  H  7  S    0.159282   0.026696   0.001204  -0.062301   0.184633
   93  H  8  S    0.025703   0.064034  -0.188432  -0.074924  -0.016628
   94  H  8  S    0.023571   0.062705  -0.176649  -0.072128  -0.015245
   95  H  9  S    0.032837   0.113363   0.142761  -0.096265  -0.077440
   96  H  9  S    0.029888   0.109923   0.133702  -0.096482  -0.082528
   97  H 10  S   -0.022826   0.111592   0.144560   0.095995  -0.060445
   98  H 10  S   -0.022169   0.107753   0.136082   0.096112  -0.061841
   99  H 11  S   -0.039957   0.066478  -0.187853   0.075036  -0.033754
  100  H 11  S   -0.034827   0.065155  -0.176031   0.072369  -0.033638
  101  H 12  S   -0.160357   0.020700   0.017887   0.040813   0.161273
  102  H 12  S   -0.158429   0.026977   0.018774   0.061864   0.184254
  103  H 13  S   -0.111921  -0.127531   0.004915  -0.137205  -0.085653
  104  H 13  S   -0.109413  -0.133672   0.006580  -0.171268  -0.099458
  105  H 14  S    0.112583  -0.126713  -0.001487   0.137905  -0.085615
  106  H 14  S    0.110169  -0.132518  -0.000001   0.172116  -0.099821

                     21         22         23         24         25
                   -0.3012    -0.1962    -0.0126     0.0945     0.1139
                     A          A          A          A          A   
    1  C  1  S   -0.002807  -0.000710  -0.000395  -0.030718  -0.011692
    2  C  1  S    0.004992   0.001167  -0.001851   0.079384   0.013779
    3  C  1  X   -0.040817   0.032720  -0.033287   0.084623   0.001875
    4  C  1  Y    0.037695  -0.029131   0.035951  -0.039835  -0.002574
    5  C  1  Z    0.195890  -0.317083   0.339020  -0.007647   0.243466
    6  C  1  S    0.022705   0.008196   0.013038   0.296339   0.186126
    7  C  1  X   -0.026061   0.021928  -0.033830   0.184805   0.062214
    8  C  1  Y    0.025789  -0.015433   0.060750  -0.161909   0.016431
    9  C  1  Z    0.126069  -0.249200   0.431786  -0.004192   0.391919
   10  C  1 XX    0.000200  -0.001410  -0.002553  -0.002414  -0.008064
   11  C  1 YY   -0.000223   0.001549   0.000947   0.006081   0.001959
   12  C  1 ZZ   -0.001161  -0.000380   0.001318  -0.003905   0.002223
   13  C  1 XY    0.001648  -0.000280  -0.000210   0.012165   0.002793
   14  C  1 XZ   -0.012612   0.009282   0.010422  -0.004009   0.017978
   15  C  1 YZ   -0.007496   0.009742   0.004523  -0.001831   0.013422
   16  C  2  S   -0.000768  -0.000978  -0.001237  -0.067913   0.006582
   17  C  2  S    0.003308   0.004246   0.001086   0.090469  -0.003222
   18  C  2  X    0.022011  -0.013094  -0.004540   0.114984  -0.015324
   19  C  2  Y   -0.030720   0.012855   0.006938   0.066968  -0.006544
   20  C  2  Z   -0.076804   0.095414  -0.007239  -0.002422   0.023909
   21  C  2  S   -0.005615  -0.002890   0.012802   1.036847  -0.171646
   22  C  2  X    0.022766  -0.000768  -0.015130   0.366667  -0.096491
   23  C  2  Y   -0.003569   0.013493   0.041252   0.130851   0.001276
   24  C  2  Z   -0.025747   0.058890   0.020561  -0.032188   0.152461
   25  C  2 XX   -0.001292   0.001139  -0.001246  -0.007701  -0.003017
   26  C  2 YY   -0.001371   0.003746  -0.004379   0.004563  -0.004020
   27  C  2 ZZ    0.003209  -0.004948   0.005310  -0.012749   0.008279
   28  C  2 XY    0.001144  -0.000495   0.001506  -0.010424  -0.001204
   29  C  2 XZ   -0.005141   0.011817  -0.006431  -0.000628  -0.004839
   30  C  2 YZ   -0.011016   0.012250  -0.021783  -0.000234  -0.016433
   31  C  3  S    0.001477  -0.003245   0.004989  -0.068008   0.003926
   32  C  3  S   -0.005863   0.007599  -0.008811   0.090590  -0.002779
   33  C  3  X   -0.029659   0.016264  -0.012861   0.000911  -0.016769
   34  C  3  Y    0.019222  -0.012536   0.006051   0.133142  -0.012856
   35  C  3  Z   -0.085739  -0.095636  -0.007041   0.004391  -0.016393
   36  C  3  S    0.008373   0.020997  -0.048764   1.035645  -0.103078
   37  C  3  X   -0.020494   0.012737  -0.040959  -0.066808   0.000884
   38  C  3  Y   -0.005677  -0.001953  -0.010547   0.380235  -0.087486
   39  C  3  Z   -0.028795  -0.059519   0.023265   0.038473  -0.129809
   40  C  3 XX   -0.000746   0.002370   0.002139   0.009222  -0.000734
   41  C  3 YY    0.001519   0.000494   0.000851  -0.012372  -0.004140
   42  C  3 ZZ   -0.000610  -0.003183  -0.002146  -0.012768   0.005342
   43  C  3 XY    0.001083   0.000977   0.000512   0.001085  -0.000970
   44  C  3 XZ   -0.006978  -0.005041  -0.016116  -0.001259   0.012687
   45  C  3 YZ   -0.010683  -0.016735  -0.017005  -0.001053   0.012488
   46  C  4  S    0.001041  -0.001520  -0.000045  -0.030348  -0.013206
   47  C  4  S   -0.000587   0.004468   0.000518   0.078730   0.022438
   48  C  4  X    0.002063  -0.019582  -0.026030  -0.076885  -0.027421
   49  C  4  Y   -0.005678   0.004296   0.002351   0.052638   0.002530
   50  C  4  Z    0.202054   0.319135   0.342217   0.020922  -0.245343
   51  C  4  S   -0.020304   0.003844  -0.000733   0.294342   0.157814
   52  C  4  X   -0.013468  -0.017516  -0.039963  -0.230510  -0.094302
   53  C  4  Y   -0.000465   0.004699  -0.011113   0.079632   0.068691
   54  C  4  Z    0.128551   0.249448   0.435389   0.032743  -0.398446
   55  C  4 XX   -0.001893   0.000971  -0.000662  -0.005446  -0.002721
   56  C  4 YY    0.000641  -0.000603   0.001071   0.009021  -0.002071
   57  C  4 ZZ    0.000815  -0.000418  -0.000622  -0.003705   0.001130
   58  C  4 XY    0.003351   0.001440  -0.001315   0.010130   0.007580
   59  C  4 XZ   -0.000480  -0.003686  -0.001467   0.000087  -0.001709
   60  C  4 YZ   -0.014397  -0.012961   0.011344   0.004122  -0.022451
   61  C  5  S    0.001089   0.000706  -0.000739  -0.031641  -0.010351
   62  C  5  S   -0.003289  -0.001884   0.001811   0.066239   0.012578
   63  C  5  X   -0.055977  -0.024805   0.020997  -0.065482  -0.091385
   64  C  5  Y    0.021495   0.007848  -0.002593  -0.039738  -0.022725
   65  C  5  Z    0.316467   0.242202  -0.239285  -0.057504   0.355584
   66  C  5  S    0.003250   0.002624  -0.002012   0.361718   0.217538
   67  C  5  X   -0.023052  -0.013871   0.032986  -0.142750  -0.161134
   68  C  5  Y    0.014590   0.005448  -0.023216  -0.108703  -0.037902
   69  C  5  Z    0.201871   0.194580  -0.297958  -0.096671   0.589512
   70  C  5 XX   -0.001369   0.001250   0.001109  -0.006451  -0.001293
   71  C  5 YY   -0.000163   0.001120   0.001615   0.003555   0.003821
   72  C  5 ZZ    0.001928  -0.002310  -0.002878  -0.000068  -0.004048
   73  C  5 XY    0.002283  -0.001734  -0.002606  -0.011089  -0.006827
   74  C  5 XZ    0.009195  -0.008827  -0.008105   0.002267  -0.017015
   75  C  5 YZ    0.003296   0.017063   0.025771  -0.000553  -0.005424
   76  C  6  S    0.001630   0.000194   0.001600  -0.030674  -0.016422
   77  C  6  S   -0.003165  -0.000017  -0.005883   0.064017   0.025596
   78  C  6  X   -0.009945   0.025926   0.024358  -0.000484   0.018892
   79  C  6  Y    0.014094  -0.018588  -0.023109  -0.077198  -0.087694
   80  C  6  Z    0.321621  -0.241981  -0.237737   0.050746  -0.354293
   81  C  6  S   -0.015967  -0.007797   0.000042   0.354253   0.246944
   82  C  6  X   -0.011361   0.023699   0.044679  -0.022982   0.043440
   83  C  6  Y    0.005336  -0.019941  -0.022457  -0.173392  -0.198125
   84  C  6  Z    0.203478  -0.192801  -0.296615   0.090711  -0.583878
   85  C  6 XX   -0.000452   0.003676  -0.005533   0.009386   0.005171
   86  C  6 YY    0.002139  -0.000811   0.001860  -0.012191  -0.004830
   87  C  6 ZZ   -0.001218  -0.003004   0.003555  -0.000058  -0.003356
   88  C  6 XY    0.000597  -0.001308   0.001414  -0.000475   0.000581
   89  C  6 XZ   -0.002304  -0.018955   0.025985   0.002814  -0.004425
   90  C  6 YZ    0.009646  -0.001067   0.006070  -0.000840   0.017859
   91  H  7  S   -0.019431   0.000793   0.000785  -0.035579  -0.014738
   92  H  7  S   -0.021134   0.003847   0.000733  -0.557916  -0.224086
   93  H  8  S    0.060479  -0.092168   0.064808  -0.031842   0.069153
   94  H  8  S    0.067750  -0.123089   0.170091  -0.703792   0.362379
   95  H  9  S   -0.046078   0.075053  -0.055426  -0.032264  -0.052475
   96  H  9  S   -0.065124   0.090111  -0.151370  -0.746598  -0.118107
   97  H 10  S    0.063830   0.077215   0.061347  -0.027250  -0.054470
   98  H 10  S    0.083188   0.091125   0.179853  -0.704611  -0.132193
   99  H 11  S   -0.051850  -0.090916  -0.061764  -0.036841   0.063309
  100  H 11  S   -0.060500  -0.123549  -0.146543  -0.742900   0.299240
  101  H 12  S   -0.018285  -0.001649  -0.000971  -0.034789  -0.022714
  102  H 12  S   -0.022637  -0.002964   0.000255  -0.553845  -0.284520
  103  H 13  S    0.013193   0.001450  -0.001744  -0.043124  -0.021047
  104  H 13  S    0.016635   0.003541  -0.003644  -0.515371  -0.309962
  105  H 14  S    0.007658  -0.002909   0.005126  -0.042093  -0.025855
  106  H 14  S    0.007410  -0.004674   0.014893  -0.508460  -0.345788

                     26         27         28         29         30
                    0.1307     0.1372     0.1521     0.1740     0.1747
                     A          A          A          A          A   
    1  C  1  S    0.016438   0.003977   0.040408  -0.096551  -0.008187
    2  C  1  S   -0.001855   0.000681  -0.068018   0.130733  -0.021633
    3  C  1  X   -0.075602  -0.032195  -0.198048   0.122023   0.045315
    4  C  1  Y    0.085376   0.019226   0.118298   0.041236   0.032277
    5  C  1  Z    0.083372   0.046863  -0.046548  -0.005383   0.016225
    6  C  1  S   -0.326095  -0.160101  -0.740201   1.653925   0.280615
    7  C  1  X   -0.278658  -0.034137  -0.577741   0.399247   0.164089
    8  C  1  Y    0.008563   0.085767   0.429963  -0.015719   0.387627
    9  C  1  Z    0.159419   0.202258  -0.155776   0.003932   0.000152
   10  C  1 XX    0.013712  -0.002791   0.003353   0.001838   0.004611
   11  C  1 YY   -0.003290  -0.001884  -0.003464  -0.014246  -0.013536
   12  C  1 ZZ   -0.000846   0.004035   0.003808  -0.002629   0.002430
   13  C  1 XY   -0.002606  -0.000366  -0.008692  -0.003268   0.009921
   14  C  1 XZ    0.009667   0.008046  -0.000947  -0.000125  -0.001134
   15  C  1 YZ    0.000916  -0.012508   0.002116   0.000299   0.001463
   16  C  2  S   -0.037791   0.003927   0.030699   0.055669   0.118404
   17  C  2  S    0.025290  -0.000756   0.008237  -0.069114  -0.103361
   18  C  2  X    0.109592  -0.060206  -0.126055  -0.005968   0.010531
   19  C  2  Y    0.081271  -0.040427  -0.013279   0.109482  -0.096126
   20  C  2  Z   -0.068496  -0.272181   0.054882  -0.004551  -0.003129
   21  C  2  S    0.837078  -0.132019  -0.871057  -0.910397  -2.231468
   22  C  2  X    0.383658  -0.198919  -0.031332  -0.173029   0.240320
   23  C  2  Y    0.102358  -0.150530  -0.111028   0.429884  -0.368696
   24  C  2  Z   -0.160617  -0.746040   0.149765  -0.028435  -0.009636
   25  C  2 XX   -0.001332  -0.001633  -0.001091  -0.014874   0.016253
   26  C  2 YY    0.002190   0.000689   0.004797   0.025311   0.005593
   27  C  2 ZZ   -0.010084   0.001908   0.006785  -0.002596   0.003157
   28  C  2 XY    0.004785   0.002176   0.009038  -0.000891  -0.011819
   29  C  2 XZ    0.001137   0.018232  -0.004301  -0.000420   0.000914
   30  C  2 YZ   -0.006387  -0.000622   0.001994  -0.001753  -0.000889
   31  C  3  S   -0.038664   0.007214  -0.030278   0.045264  -0.122268
   32  C  3  S    0.025847  -0.004179  -0.008386  -0.060781   0.108435
   33  C  3  X    0.006902  -0.013183  -0.050452   0.107545   0.079670
   34  C  3  Y    0.154578   0.006132   0.115314   0.052607   0.034512
   35  C  3  Z   -0.045266  -0.279164   0.062606  -0.013614  -0.011535
   36  C  3  S    0.862338  -0.152580   0.861301  -0.710237   2.289879
   37  C  3  X   -0.110109   0.037045   0.085166   0.510018   0.400490
   38  C  3  Y    0.449476   0.054995   0.084362   0.058529  -0.031266
   39  C  3  Z   -0.142169  -0.759558   0.175307  -0.020488  -0.030999
   40  C  3 XX   -0.001074   0.001231   0.003831   0.014121  -0.018559
   41  C  3 YY    0.002985  -0.000525  -0.007320  -0.005701  -0.004093
   42  C  3 ZZ   -0.011373   0.001005  -0.006866  -0.002823  -0.002824
   43  C  3 XY    0.002961  -0.003781  -0.007357   0.020703   0.009479
   44  C  3 XZ    0.001555  -0.011016   0.002878  -0.000371  -0.001213
   45  C  3 YZ    0.007549   0.013686  -0.003542   0.001380   0.000074
   46  C  4  S    0.013943  -0.008390  -0.039729  -0.096136   0.016326
   47  C  4  S    0.001408   0.002369   0.066109   0.132422   0.010336
   48  C  4  X    0.084854  -0.066620  -0.205755  -0.028537  -0.001550
   49  C  4  Y   -0.014133   0.022174   0.111105   0.122175  -0.065702
   50  C  4  Z   -0.061931   0.074833  -0.021646   0.007291   0.018127
   51  C  4  S   -0.269659   0.231266   0.733719   1.637668  -0.420453
   52  C  4  X    0.085735  -0.118184  -0.671321  -0.244198  -0.231523
   53  C  4  Y   -0.221767   0.083656   0.280117   0.313041  -0.362319
   54  C  4  Z   -0.082220   0.253218  -0.099890   0.010536   0.023654
   55  C  4 XX    0.003694   0.000333  -0.004771  -0.006095   0.017041
   56  C  4 YY    0.008626   0.000179   0.004990  -0.005752  -0.007068
   57  C  4 ZZ   -0.002671  -0.002289  -0.003910  -0.002810  -0.002252
   58  C  4 XY   -0.008713   0.003994   0.007531  -0.009365   0.005089
   59  C  4 XZ   -0.002203  -0.015372   0.003226  -0.000817   0.000785
   60  C  4 YZ   -0.007398   0.003343   0.000879   0.000447   0.000753
   61  C  5  S    0.036027  -0.011877  -0.013911   0.044246   0.051684
   62  C  5  S   -0.036875   0.011466   0.006371  -0.066969  -0.070433
   63  C  5  X    0.132798  -0.057003  -0.123657   0.089845   0.027883
   64  C  5  Y    0.119474  -0.030203  -0.038111   0.006080   0.057702
   65  C  5  Z    0.118387  -0.033107  -0.013553  -0.009880  -0.008030
   66  C  5  S   -0.733141   0.240362   0.512194  -0.786898  -0.883275
   67  C  5  X    0.365935  -0.117722  -0.058890   0.399113   0.140335
   68  C  5  Y    0.179737  -0.100383  -0.260812  -0.103086   0.279902
   69  C  5  Z    0.212731  -0.111309   0.005526   0.002055  -0.030170
   70  C  5 XX    0.012536  -0.000729   0.007271  -0.007530   0.005993
   71  C  5 YY   -0.005123  -0.000429  -0.004132   0.007185   0.002782
   72  C  5 ZZ    0.000663  -0.001561  -0.002181   0.003839   0.001645
   73  C  5 XY    0.010161  -0.004749  -0.009677   0.004222  -0.005623
   74  C  5 XZ   -0.006171  -0.004996   0.002980  -0.000329   0.000952
   75  C  5 YZ    0.000059   0.002516  -0.001361   0.000300   0.000683
   76  C  6  S    0.035293  -0.004275   0.014034   0.039912  -0.055517
   77  C  6  S   -0.033901   0.004416  -0.007050  -0.060794   0.074779
   78  C  6  X    0.029677  -0.010866  -0.031342  -0.042015  -0.033463
   79  C  6  Y    0.182703  -0.019338   0.128694   0.077510  -0.061086
   80  C  6  Z   -0.130814   0.009613   0.000783   0.008052   0.008563
   81  C  6  S   -0.740944   0.116639  -0.516432  -0.716954   0.957060
   82  C  6  X   -0.022007   0.054946   0.193133  -0.302535  -0.146300
   83  C  6  Y    0.410359  -0.040631   0.190371   0.270669  -0.287232
   84  C  6  Z   -0.250887  -0.025109   0.036293  -0.015278   0.009753
   85  C  6 XX   -0.009859   0.000117  -0.006263  -0.000316  -0.008150
   86  C  6 YY    0.016352  -0.001632   0.002837  -0.000603  -0.001106
   87  C  6 ZZ    0.001532   0.001314   0.002227   0.003504  -0.001818
   88  C  6 XY   -0.002327   0.003818   0.010371   0.009693   0.003717
   89  C  6 XZ   -0.001165   0.005291  -0.002682  -0.001149   0.000454
   90  C  6 YZ    0.003799  -0.004445   0.000791   0.000719   0.000554
   91  H  7  S    0.035994   0.006794   0.039776  -0.029684  -0.045442
   92  H  7  S    0.472157   0.139015   1.258331  -1.095086  -0.146139
   93  H  8  S   -0.009573  -0.058766   0.022968  -0.018004   0.005374
   94  H  8  S   -0.678421  -0.788859   0.582719   0.237651   0.740767
   95  H  9  S   -0.021998   0.069728   0.003690  -0.020377   0.005187
   96  H  9  S   -0.440769   1.078751   0.274573   0.200031   0.822246
   97  H 10  S   -0.049837  -0.057131   0.000939  -0.022927  -0.003481
   98  H 10  S   -0.825685  -0.860626  -0.220174   0.093455  -0.833827
   99  H 11  S    0.012742   0.057966  -0.027357  -0.014792  -0.004028
  100  H 11  S   -0.369210   0.965084  -0.623168   0.219113  -0.749119
  101  H 12  S    0.028481  -0.017261  -0.039594  -0.025535   0.047892
  102  H 12  S    0.374180  -0.292379  -1.251641  -1.093822   0.237515
  103  H 13  S    0.048125  -0.016747  -0.019800   0.024156   0.007254
  104  H 13  S    0.924954  -0.329953  -0.527671   0.694365   0.628283
  105  H 14  S    0.049399  -0.002663   0.020087   0.023571  -0.009372
  106  H 14  S    0.951079  -0.102302   0.536427   0.645623  -0.693186

                     31         32         33         34         35
                    0.2038     0.2344     0.2428     0.2594     0.2843
                     A          A          A          A          A   
    1  C  1  S   -0.052850   0.016745   0.007556  -0.035951  -0.053165
    2  C  1  S    0.100988  -0.029312   0.028608   0.045432   0.070991
    3  C  1  X    0.060001   0.003643  -0.037117  -0.092390   0.022505
[...]
   79  C  6  Y   -0.073484  -0.047630
   80  C  6  Z   -0.006501  -0.062491
   81  C  6  S    0.633049  -0.219979
   82  C  6  X   -0.138333  -0.146847
   83  C  6  Y   -0.901522  -0.116033
   84  C  6  Z    0.162081  -0.173010
   85  C  6 XX   -0.019894   0.005196
   86  C  6 YY    0.002240   0.003276
   87  C  6 ZZ    0.001479  -0.000774
   88  C  6 XY    0.004494   0.008101
   89  C  6 XZ   -0.005317   0.000890
   90  C  6 YZ    0.004858   0.003632
   91  H  7  S    0.051484   0.015606
   92  H  7  S    1.073193  -0.434789
   93  H  8  S   -0.008397  -0.019698
   94  H  8  S   -0.354173  -1.177290
   95  H  9  S   -0.039809   0.015593
   96  H  9  S   -0.664910   1.020334
   97  H 10  S    0.039922   0.015257
   98  H 10  S    0.665632   1.015430
   99  H 11  S    0.008471  -0.020050
  100  H 11  S    0.351237  -1.176375
  101  H 12  S   -0.051377   0.015667
  102  H 12  S   -1.072880  -0.432931
  103  H 13  S    0.041544   0.000117
  104  H 13  S    1.251128  -0.014329
  105  H 14  S   -0.041567  -0.000158
  106  H 14  S   -1.251664  -0.017938

     ---------------------------------------------------------------------
     PROPERTIES FOR THE B3LYP    DFT FUNCTIONAL (RHF  TYPE) DENSITY MATRIX
     ---------------------------------------------------------------------

          -----------------
          ENERGY COMPONENTS
          -----------------

         WAVEFUNCTION NORMALIZATION =       1.0000000000

                ONE ELECTRON ENERGY =    -745.7078745365
                TWO ELECTRON ENERGY =     293.9507223415
           NUCLEAR REPULSION ENERGY =     218.4995349747
                                      ------------------
                       TOTAL ENERGY =    -233.2576172203

 ELECTRON-ELECTRON POTENTIAL ENERGY =     293.9507223415
  NUCLEUS-ELECTRON POTENTIAL ENERGY =    -976.7641393662
   NUCLEUS-NUCLEUS POTENTIAL ENERGY =     218.4995349747
                                      ------------------
             TOTAL POTENTIAL ENERGY =    -464.3138820499
               TOTAL KINETIC ENERGY =     231.0562648296
                 VIRIAL RATIO (V/T) =       2.0095273434

          ---------------------------------------
          MULLIKEN AND LOWDIN POPULATION ANALYSES
          ---------------------------------------

     ATOMIC MULLIKEN POPULATION IN EACH MOLECULAR ORBITAL

                      1          2          3          4          5

                  2.000000   2.000000   2.000000   2.000000   2.000000

    1             0.000847   0.002830   0.030717   1.916933   0.024553
    2             0.491735   1.503476   0.000050   0.003111   0.000012
    3             1.503548   0.491788   0.002945   0.000086   0.000013
    4             0.002630   0.000922   1.915171   0.032043   0.030013
    5            -0.000006  -0.000007   0.049201   0.000241   1.075750
    6             0.000028  -0.000040   0.001601   0.047268   0.869338
    7             0.000005   0.000008   0.000002   0.000260  -0.000000
    8             0.000182   0.000395  -0.000001   0.000010   0.000000
    9             0.000136   0.000400   0.000001   0.000002  -0.000000
   10             0.000415   0.000121   0.000005  -0.000001  -0.000000
   11             0.000472   0.000105   0.000009   0.000000   0.000000
   12             0.000011   0.000001   0.000255   0.000007  -0.000000
   13             0.000000  -0.000000   0.000041   0.000000   0.000171
   14             0.000000  -0.000001   0.000002   0.000039   0.000153

                      6          7          8          9         10

                  2.000000   2.000000   2.000000   2.000000   2.000000

    1             0.024331   0.308780   0.088295   0.515914   0.181664
    2             0.000015   0.313485   0.438785   0.169948   0.396918
    3             0.000014   0.313331   0.428026   0.180854   0.396521
    4             0.019436   0.309310   0.092002   0.512063   0.181536
    5             0.874570   0.325308   0.360688   0.216890   0.218356
    6             1.081555   0.325629   0.349596   0.228011   0.218367
    7            -0.000000   0.011340   0.000248   0.050758   0.000776
    8             0.000000   0.014248   0.040583   0.010741   0.076756
    9            -0.000000   0.014680   0.046639   0.013392   0.080568
   10            -0.000000   0.014669   0.045269   0.014742   0.080444
   11             0.000000   0.014222   0.039370   0.011864   0.076462
   12            -0.000000   0.011382   0.000476   0.050551   0.000759
   13             0.000030   0.011794   0.035578   0.011567   0.045458
   14             0.000049   0.011820   0.034446   0.012704   0.045416

                     11         12         13         14         15

                  2.000000   2.000000   2.000000   2.000000   2.000000

    1             0.331029   0.249090   0.207947   0.087205   0.338595
    2             0.153056   0.162527   0.258475   0.419616   0.304345
    3             0.153256   0.163139   0.257809   0.419988   0.305321
    4             0.331378   0.248334   0.208630   0.087276   0.339008
    5             0.329658   0.288935   0.167339   0.116397   0.326976
    6             0.329545   0.287743   0.168404   0.117149   0.326743
    7             0.114919   0.112865   0.109962   0.018658   0.008896
    8             0.012328   0.005279   0.147922   0.084161   0.000230
    9             0.016746   0.052757   0.002471   0.190523   0.018747
   10             0.016877   0.053168   0.002425   0.190678   0.018790
   11             0.012353   0.005363   0.147517   0.084560   0.000205
   12             0.115094   0.111998   0.110590   0.018830   0.008626
   13             0.041875   0.129988   0.104885   0.082209   0.001764
   14             0.041885   0.128815   0.105625   0.082751   0.001755

                     16         17         18         19         20

                  2.000000   2.000000   2.000000   2.000000   2.000000

    1             0.410350   0.011521   0.113704   0.281407   0.169630
    2             0.084839   0.403278   0.493034   0.299438   0.328955
    3             0.083942   0.405421   0.492973   0.296399   0.329775
    4             0.409354   0.011936   0.113808   0.279854   0.171027
    5             0.162202   0.270043   0.035713   0.147056   0.174903
    6             0.161045   0.269540   0.035713   0.148248   0.175172
    7             0.244710   0.003561   0.009295   0.009431   0.178666
    8             0.018502   0.000407   0.319286   0.009839   0.021328
    9             0.001556   0.170432   0.028769   0.118898   0.069050
   10             0.001504   0.171675   0.028653   0.118012   0.068593
   11             0.018468   0.000439   0.319436   0.009777   0.021645
   12             0.243868   0.003751   0.009381   0.009153   0.179708
   13             0.080204   0.139491   0.000121   0.135254   0.055875
   14             0.079456   0.138504   0.000114   0.137235   0.055674

                     21         22

                  2.000000   2.000000

    1             0.261560   0.565538
    2             0.035298   0.037751
    3             0.035017   0.037760
    4             0.261848   0.565086
    5             0.648533   0.326626
    6             0.648361   0.326651
    7             0.000067  -0.000025
    8             0.023894   0.064718
    9             0.029875   0.005258
   10             0.029501   0.005225
   11             0.023826   0.064811
   12             0.000094  -0.000026
   13             0.001043   0.000314
   14             0.001084   0.000312

               ----- POPULATIONS IN EACH AO -----
                             MULLIKEN      LOWDIN
              1  C  1  S      1.99185     1.97800
              2  C  1  S      0.70773     0.36475
              3  C  1  X      0.75976     0.66390
              4  C  1  Y      0.71239     0.63250
              5  C  1  Z      0.57462     0.52863
              6  C  1  S      0.53285     0.30775
              7  C  1  X      0.23425     0.37938
              8  C  1  Y      0.19620     0.35825
              9  C  1  Z      0.40415     0.45563
             10  C  1 XX      0.00909     0.17757
             11  C  1 YY     -0.00016     0.16187
             12  C  1 ZZ     -0.02218     0.10987
             13  C  1 XY      0.01230     0.02593
             14  C  1 XZ      0.00495     0.00964
             15  C  1 YZ      0.00461     0.00902
             16  C  2  S      1.99207     1.97742
             17  C  2  S      0.68020     0.35667
             18  C  2  X      0.70243     0.62938
             19  C  2  Y      0.69569     0.62462
             20  C  2  Z      0.71291     0.63453
             21  C  2  S      0.59782     0.31019
             22  C  2  X      0.28619     0.40423
             23  C  2  Y      0.27027     0.38192
             24  C  2  Z      0.33350     0.46276
             25  C  2 XX      0.00095     0.14833
             26  C  2 YY     -0.00172     0.15003
             27  C  2 ZZ      0.00683     0.15208
             28  C  2 XY      0.00937     0.01816
             29  C  2 XZ      0.00632     0.01167
             30  C  2 YZ      0.00530     0.01003
             31  C  3  S      1.99207     1.97741
             32  C  3  S      0.68018     0.35644
             33  C  3  X      0.68857     0.62057
             34  C  3  Y      0.70921     0.63278
             35  C  3  Z      0.71300     0.63422
             36  C  3  S      0.59802     0.31019
             37  C  3  X      0.24680     0.36767
             38  C  3  Y      0.30920     0.41800
             39  C  3  Z      0.33385     0.46369
             40  C  3 XX     -0.00341     0.14915
             41  C  3 YY      0.00337     0.15107
             42  C  3 ZZ      0.00673     0.15169
             43  C  3 XY      0.00834     0.01478
             44  C  3 XZ      0.00455     0.00843
             45  C  3 YZ      0.00745     0.01409
             46  C  4  S      1.99185     1.97805
             47  C  4  S      0.70775     0.36496
             48  C  4  X      0.70792     0.62266
             49  C  4  Y      0.76547     0.67443
             50  C  4  Z      0.57337     0.52749
             51  C  4  S      0.53311     0.30770
             52  C  4  X      0.22495     0.39283
             53  C  4  Y      0.20318     0.34351
             54  C  4  Z      0.40646     0.45640
             55  C  4 XX      0.00574     0.16077
             56  C  4 YY      0.00250     0.17699
             57  C  4 ZZ     -0.02238     0.10942
             58  C  4 XY      0.01322     0.02907
             59  C  4 XZ      0.00261     0.00469
             60  C  4 YZ      0.00693     0.01387
             61  C  5  S      1.99183     1.97796
             62  C  5  S      0.70851     0.36172
             63  C  5  X      0.71693     0.62728
             64  C  5  Y      0.76906     0.67518
             65  C  5  Z      0.58382     0.53116
             66  C  5  S      0.50246     0.30327
             67  C  5  X      0.23702     0.38731
             68  C  5  Y      0.17612     0.34611
             69  C  5  Z      0.42020     0.46989
             70  C  5 XX      0.00497     0.15950
             71  C  5 YY      0.00276     0.17580
             72  C  5 ZZ     -0.02221     0.10802
             73  C  5 XY      0.01413     0.03115
             74  C  5 XZ      0.00344     0.00640
             75  C  5 YZ      0.00634     0.01343
             76  C  6  S      1.99183     1.97790
             77  C  6  S      0.70852     0.36133
             78  C  6  X      0.75256     0.66126
             79  C  6  Y      0.73223     0.63995
             80  C  6  Z      0.58493     0.53186
             81  C  6  S      0.50264     0.30320
             82  C  6  X      0.17980     0.33290
             83  C  6  Y      0.23421     0.40140
             84  C  6  Z      0.41953     0.46972
             85  C  6 XX      0.00003     0.17331
             86  C  6 YY      0.01159     0.16995
             87  C  6 ZZ     -0.02202     0.10820
             88  C  6 XY      0.00980     0.01976
             89  C  6 XZ      0.00692     0.01499
             90  C  6 YZ      0.00310     0.00533
             91  H  7  S      0.53194     0.48628
             92  H  7  S      0.34245     0.35989
             93  H  8  S      0.52564     0.49347
             94  H  8  S      0.32517     0.35810
             95  H  9  S      0.53025     0.49317
             96  H  9  S      0.33065     0.35553
             97  H 10  S      0.53022     0.49418
             98  H 10  S      0.33054     0.35563
             99  H 11  S      0.52544     0.49325
            100  H 11  S      0.32546     0.35830
            101  H 12  S      0.53200     0.48629
            102  H 12  S      0.34250     0.35988
            103  H 13  S      0.53310     0.48597
            104  H 13  S      0.34457     0.35932
            105  H 14  S      0.53309     0.48812
            106  H 14  S      0.34475     0.35965

          ----- MULLIKEN ATOMIC OVERLAP POPULATIONS -----
          (OFF-DIAGONAL ELEMENTS NEED TO BE MULTIPLIED BY 2)

             1           2           3           4           5

    1    4.9332917
    2    0.3719426   5.0306528
    3   -0.0280384   0.3728910   5.0302707
    4   -0.0397405  -0.0280270   0.3720552   4.9336729
    5   -0.0322287  -0.0274584  -0.0353407   0.6651246   4.8263118
    6    0.6653507  -0.0352904  -0.0273485  -0.0322042   0.4358178
    7    0.3613472  -0.0515610   0.0037715   0.0002732   0.0050715
    8   -0.0411513   0.3598038  -0.0368453   0.0014480   0.0037959
    9   -0.0296335   0.3647393  -0.0328850   0.0037920   0.0007815
   10    0.0037770  -0.0328482   0.3648107  -0.0295549   0.0031223
   11    0.0014848  -0.0368842   0.3598070  -0.0412663  -0.0073406
   12    0.0002788   0.0037869  -0.0516032   0.3612591  -0.0358530
   13    0.0058233  -0.0000950   0.0064721  -0.0500051   0.3614854
   14   -0.0500634   0.0064955  -0.0000917   0.0058377  -0.0479191

             6           7           8           9          10

    6    4.8262207
    7   -0.0358195   0.6012311
    8   -0.0073424   0.0025406   0.6068671
    9    0.0031268  -0.0041479  -0.0378580   0.6003486
   10    0.0007770  -0.0001399  -0.0070073  -0.0000490   0.5999372
   11    0.0037918   0.0000334   0.0066957  -0.0070339  -0.0377752
   12    0.0050793   0.0000127   0.0000329  -0.0001406  -0.0041485
   13   -0.0478882  -0.0001670   0.0000069   0.0000090  -0.0001479
   14    0.3613986  -0.0080475  -0.0001782  -0.0001489   0.0000089

            11          12          13          14

   11    0.6070243
   12    0.0025381   0.6014702
   13   -0.0001777  -0.0080375   0.6154966
   14    0.0000066  -0.0001677  -0.0051125   0.6158209

          TOTAL MULLIKEN AND LOWDIN ATOMIC POPULATIONS
       ATOM         MULL.POP.    CHARGE          LOW.POP.     CHARGE
    1 C             6.122440   -0.122440         6.162685   -0.162685
    2 C             6.298148   -0.298148         6.272026   -0.272026
    3 C             6.297925   -0.297925         6.270174   -0.270174
    4 C             6.122665   -0.122665         6.162841   -0.162841
    5 C             6.115370   -0.115370         6.174184   -0.174184
    6 C             6.115669   -0.115669         6.171049   -0.171049
    7 H             0.874398    0.125602         0.846166    0.153834
    8 H             0.850808    0.149192         0.851575    0.148425
    9 H             0.860901    0.139099         0.848701    0.151299
   10 H             0.860762    0.139238         0.849813    0.150187
   11 H             0.850904    0.149096         0.851548    0.148452
   12 H             0.874507    0.125493         0.846169    0.153831
   13 H             0.877662    0.122338         0.845295    0.154705
   14 H             0.877839    0.122161         0.847773    0.152227

          -------------------------------
          BOND ORDER AND VALENCE ANALYSIS     BOND ORDER THRESHOLD=0.050
          -------------------------------

                   BOND                       BOND                       BOND
  ATOM PAIR DIST  ORDER      ATOM PAIR DIST  ORDER      ATOM PAIR DIST  ORDER
    1   2  1.513  1.010        1   4  2.854  0.099        1   6  1.343  1.874
    1   7  1.088  0.930        2   3  1.540  1.008        2   8  1.103  0.923
    2   9  1.097  0.936        3   4  1.513  1.010        3  10  1.097  0.936
    3  11  1.104  0.923        4   5  1.344  1.874        4  12  1.088  0.930
    5   6  1.467  1.120        5  13  1.088  0.928        6  14  1.088  0.928

                       TOTAL       BONDED        FREE
      ATOM            VALENCE     VALENCE     VALENCE
    1 C                 3.902       3.902       0.000
    2 C                 3.877       3.877      -0.000
    3 C                 3.877       3.877      -0.000
    4 C                 3.902       3.902       0.000
    5 C                 3.957       3.957       0.000
    6 C                 3.957       3.957      -0.000
    7 H                 0.938       0.938      -0.000
    8 H                 0.924       0.924       0.000
    9 H                 0.930       0.930      -0.000
   10 H                 0.930       0.930      -0.000
   11 H                 0.924       0.924      -0.000
   12 H                 0.938       0.938      -0.000
   13 H                 0.935       0.935      -0.000
   14 H                 0.935       0.935      -0.000

          ---------------------
          ELECTROSTATIC MOMENTS
          ---------------------

 POINT   1           X           Y           Z (BOHR)    CHARGE
                 0.007508    0.014515    0.002154        0.00 (A.U.)
         DX          DY          DZ         /D/  (DEBYE)
     0.187558    0.328450   -0.005369    0.378268
 ...... END OF PROPERTY EVALUATION ......
 STEP CPU TIME =     0.03 TOTAL CPU TIME =        911.9 (     15.2 MIN)
 TOTAL WALL CLOCK TIME=        915.6 SECONDS, CPU UTILIZATION IS    99.59%
  $VIB   
          IVIB=   0 IATOM=   0 ICOORD=   0 E=     -233.2576172203
  1.709468302E-04-1.434076798E-04 3.452649278E-05-1.300707005E-04-1.489639250E-04
 -2.983411997E-04-9.263699577E-05 3.576234729E-04-1.306761631E-04 1.805266335E-04
 -1.154469184E-04 3.397407473E-05-1.216783030E-04-1.673661259E-05 7.880656597E-07
  5.607845619E-06 4.224806347E-04-1.038943023E-04 2.343907577E-06-5.423333826E-06
  5.058221554E-06-1.884650000E-05 4.050151051E-05 3.365981362E-04-7.862696349E-05
 -7.354724124E-05-2.510007022E-05 2.438390083E-05-5.621002972E-05 1.565028662E-05
  2.552527454E-05-4.061853294E-05 6.416095751E-05 6.030012615E-05-4.156959033E-05
  3.498933508E-05-3.409513474E-05-6.426114289E-05-1.675262733E-05 6.320079108E-06
 -1.144206114E-04 4.901879254E-05
  1.875576901E-01 3.284503492E-01-5.368537624E-03
 ......END OF GEOMETRY SEARCH......
 STEP CPU TIME =     0.00 TOTAL CPU TIME =        911.9 (     15.2 MIN)
 TOTAL WALL CLOCK TIME=        915.6 SECONDS, CPU UTILIZATION IS    99.59%
               1126183  WORDS OF DYNAMIC MEMORY USED
 EXECUTION OF GAMESS TERMINATED NORMALLY Wed Dec 21 02:46:44 2022
 DDI: 263640 bytes (0.3 MB / 0 MWords) used by master data server.

 ----------------------------------------
 CPU timing information for all processes
 ========================================
 0: 910.543 + 1.334 = 911.877
 ----------------------------------------
 ddikick.x: exited gracefully.
----- accounting info -----
Files used on the master node chemcompute-node-0.novalocal were:
-rw-r--r--. 1 chemcomp chemcomp     1211 Dec 21 02:31 /scratch/169822/518232.F05
-rw-rw-r--. 1 chemcomp chemcomp 52428800 Dec 21 02:46 /scratch/169822/518232.F10
-rw-rw-r--. 1 chemcomp chemcomp  6987120 Dec 21 02:46 /scratch/169822/518232.F22
Wed Dec 21 02:46:47 UTC 2022
0.102u 0.029s 15:18.97 0.0%	0+0k 8+208io 0pf+0w
Finishing Up...
Looking for IR data...
Looking for Raman data...
vibramans not found
Looking for thermodynamics data...
Looking for UV-Vis data...
chemcompute.org
{'UTCtimestamp': '2022-12-21T02:46:48.893083', 'cluster': 'jetstream2', 'clusterJobNumber': '169822', 'status': 'COMPLETE', 'nodeList': 'chemcompute-node-0'}
169822
